file 103477488 1394510466                                       
version 2
run AODVUU-0-20140310-23:59:12-7644
attr configname AODVUU
attr datetime 20140310-23:59:12
attr experiment AODVUU
attr inifile omnetpp.ini
attr iterationvars ""
attr iterationvars2 $repetition=0
attr measurement ""
attr network ManetSim
attr processid 7644
attr repetition 0
attr replication #0
attr resultdir results
attr runnumber 0
attr seedset 0

vector 2  ManetSim.node[0].mobility  posx  ETV
vector 3  ManetSim.node[0].mobility  posy  ETV
vector 4  ManetSim.node[0].mobility  speed  ETV
vector 5  ManetSim.node[0].mobility  acceleration  ETV
vector 6  ManetSim.node[0].mobility  co2emission  ETV
vector 9  ManetSim.node[1].mobility  posx  ETV
vector 10  ManetSim.node[1].mobility  posy  ETV
vector 11  ManetSim.node[1].mobility  speed  ETV
vector 12  ManetSim.node[1].mobility  acceleration  ETV
vector 13  ManetSim.node[1].mobility  co2emission  ETV
vector 16  ManetSim.node[2].mobility  posx  ETV
vector 17  ManetSim.node[2].mobility  posy  ETV
vector 18  ManetSim.node[2].mobility  speed  ETV
vector 19  ManetSim.node[2].mobility  acceleration  ETV
vector 20  ManetSim.node[2].mobility  co2emission  ETV
vector 23  ManetSim.node[3].mobility  posx  ETV
vector 24  ManetSim.node[3].mobility  posy  ETV
vector 25  ManetSim.node[3].mobility  speed  ETV
vector 26  ManetSim.node[3].mobility  acceleration  ETV
vector 27  ManetSim.node[3].mobility  co2emission  ETV
vector 30  ManetSim.node[4].mobility  posx  ETV
vector 31  ManetSim.node[4].mobility  posy  ETV
vector 32  ManetSim.node[4].mobility  speed  ETV
vector 33  ManetSim.node[4].mobility  acceleration  ETV
vector 34  ManetSim.node[4].mobility  co2emission  ETV
vector 37  ManetSim.node[5].mobility  posx  ETV
vector 38  ManetSim.node[5].mobility  posy  ETV
vector 39  ManetSim.node[5].mobility  speed  ETV
vector 40  ManetSim.node[5].mobility  acceleration  ETV
vector 41  ManetSim.node[5].mobility  co2emission  ETV
vector 44  ManetSim.node[6].mobility  posx  ETV
vector 45  ManetSim.node[6].mobility  posy  ETV
vector 46  ManetSim.node[6].mobility  speed  ETV
vector 47  ManetSim.node[6].mobility  acceleration  ETV
vector 48  ManetSim.node[6].mobility  co2emission  ETV
vector 51  ManetSim.node[7].mobility  posx  ETV
vector 52  ManetSim.node[7].mobility  posy  ETV
vector 53  ManetSim.node[7].mobility  speed  ETV
vector 54  ManetSim.node[7].mobility  acceleration  ETV
vector 55  ManetSim.node[7].mobility  co2emission  ETV
vector 58  ManetSim.node[8].mobility  posx  ETV
vector 59  ManetSim.node[8].mobility  posy  ETV
vector 60  ManetSim.node[8].mobility  speed  ETV
vector 61  ManetSim.node[8].mobility  acceleration  ETV
vector 62  ManetSim.node[8].mobility  co2emission  ETV
vector 65  ManetSim.node[9].mobility  posx  ETV
vector 66  ManetSim.node[9].mobility  posy  ETV
vector 67  ManetSim.node[9].mobility  speed  ETV
vector 68  ManetSim.node[9].mobility  acceleration  ETV
vector 69  ManetSim.node[9].mobility  co2emission  ETV
vector 72  ManetSim.node[10].mobility  posx  ETV
vector 73  ManetSim.node[10].mobility  posy  ETV
vector 74  ManetSim.node[10].mobility  speed  ETV
vector 75  ManetSim.node[10].mobility  acceleration  ETV
vector 76  ManetSim.node[10].mobility  co2emission  ETV
vector 79  ManetSim.node[11].mobility  posx  ETV
vector 80  ManetSim.node[11].mobility  posy  ETV
vector 81  ManetSim.node[11].mobility  speed  ETV
vector 82  ManetSim.node[11].mobility  acceleration  ETV
vector 83  ManetSim.node[11].mobility  co2emission  ETV
vector 86  ManetSim.node[12].mobility  posx  ETV
vector 87  ManetSim.node[12].mobility  posy  ETV
vector 88  ManetSim.node[12].mobility  speed  ETV
vector 89  ManetSim.node[12].mobility  acceleration  ETV
vector 90  ManetSim.node[12].mobility  co2emission  ETV
vector 93  ManetSim.node[13].mobility  posx  ETV
vector 94  ManetSim.node[13].mobility  posy  ETV
vector 95  ManetSim.node[13].mobility  speed  ETV
vector 96  ManetSim.node[13].mobility  acceleration  ETV
vector 97  ManetSim.node[13].mobility  co2emission  ETV
vector 100  ManetSim.node[14].mobility  posx  ETV
vector 101  ManetSim.node[14].mobility  posy  ETV
vector 102  ManetSim.node[14].mobility  speed  ETV
vector 103  ManetSim.node[14].mobility  acceleration  ETV
vector 104  ManetSim.node[14].mobility  co2emission  ETV
vector 107  ManetSim.node[15].mobility  posx  ETV
vector 108  ManetSim.node[15].mobility  posy  ETV
vector 109  ManetSim.node[15].mobility  speed  ETV
vector 110  ManetSim.node[15].mobility  acceleration  ETV
vector 111  ManetSim.node[15].mobility  co2emission  ETV
vector 114  ManetSim.node[16].mobility  posx  ETV
vector 115  ManetSim.node[16].mobility  posy  ETV
vector 116  ManetSim.node[16].mobility  speed  ETV
vector 117  ManetSim.node[16].mobility  acceleration  ETV
vector 118  ManetSim.node[16].mobility  co2emission  ETV
vector 121  ManetSim.node[17].mobility  posx  ETV
vector 122  ManetSim.node[17].mobility  posy  ETV
vector 123  ManetSim.node[17].mobility  speed  ETV
vector 124  ManetSim.node[17].mobility  acceleration  ETV
vector 125  ManetSim.node[17].mobility  co2emission  ETV
vector 128  ManetSim.node[18].mobility  posx  ETV
vector 129  ManetSim.node[18].mobility  posy  ETV
vector 130  ManetSim.node[18].mobility  speed  ETV
vector 131  ManetSim.node[18].mobility  acceleration  ETV
vector 132  ManetSim.node[18].mobility  co2emission  ETV
vector 135  ManetSim.node[19].mobility  posx  ETV
vector 136  ManetSim.node[19].mobility  posy  ETV
vector 137  ManetSim.node[19].mobility  speed  ETV
vector 138  ManetSim.node[19].mobility  acceleration  ETV
vector 139  ManetSim.node[19].mobility  co2emission  ETV
vector 142  ManetSim.node[20].mobility  posx  ETV
vector 143  ManetSim.node[20].mobility  posy  ETV
vector 144  ManetSim.node[20].mobility  speed  ETV
vector 145  ManetSim.node[20].mobility  acceleration  ETV
vector 146  ManetSim.node[20].mobility  co2emission  ETV
vector 149  ManetSim.node[21].mobility  posx  ETV
vector 150  ManetSim.node[21].mobility  posy  ETV
vector 151  ManetSim.node[21].mobility  speed  ETV
vector 152  ManetSim.node[21].mobility  acceleration  ETV
vector 153  ManetSim.node[21].mobility  co2emission  ETV
vector 156  ManetSim.node[22].mobility  posx  ETV
vector 157  ManetSim.node[22].mobility  posy  ETV
vector 158  ManetSim.node[22].mobility  speed  ETV
vector 159  ManetSim.node[22].mobility  acceleration  ETV
vector 160  ManetSim.node[22].mobility  co2emission  ETV
vector 163  ManetSim.node[23].mobility  posx  ETV
vector 164  ManetSim.node[23].mobility  posy  ETV
vector 165  ManetSim.node[23].mobility  speed  ETV
vector 166  ManetSim.node[23].mobility  acceleration  ETV
vector 167  ManetSim.node[23].mobility  co2emission  ETV
vector 170  ManetSim.node[24].mobility  posx  ETV
vector 171  ManetSim.node[24].mobility  posy  ETV
vector 172  ManetSim.node[24].mobility  speed  ETV
vector 173  ManetSim.node[24].mobility  acceleration  ETV
vector 174  ManetSim.node[24].mobility  co2emission  ETV
vector 177  ManetSim.node[25].mobility  posx  ETV
vector 178  ManetSim.node[25].mobility  posy  ETV
vector 179  ManetSim.node[25].mobility  speed  ETV
vector 180  ManetSim.node[25].mobility  acceleration  ETV
vector 181  ManetSim.node[25].mobility  co2emission  ETV
vector 184  ManetSim.node[26].mobility  posx  ETV
vector 185  ManetSim.node[26].mobility  posy  ETV
vector 186  ManetSim.node[26].mobility  speed  ETV
vector 187  ManetSim.node[26].mobility  acceleration  ETV
vector 188  ManetSim.node[26].mobility  co2emission  ETV
vector 191  ManetSim.node[27].mobility  posx  ETV
vector 192  ManetSim.node[27].mobility  posy  ETV
vector 193  ManetSim.node[27].mobility  speed  ETV
vector 194  ManetSim.node[27].mobility  acceleration  ETV
vector 195  ManetSim.node[27].mobility  co2emission  ETV
vector 198  ManetSim.node[28].mobility  posx  ETV
vector 199  ManetSim.node[28].mobility  posy  ETV
vector 200  ManetSim.node[28].mobility  speed  ETV
vector 201  ManetSim.node[28].mobility  acceleration  ETV
vector 202  ManetSim.node[28].mobility  co2emission  ETV
vector 205  ManetSim.node[29].mobility  posx  ETV
vector 206  ManetSim.node[29].mobility  posy  ETV
vector 207  ManetSim.node[29].mobility  speed  ETV
vector 208  ManetSim.node[29].mobility  acceleration  ETV
vector 209  ManetSim.node[29].mobility  co2emission  ETV
vector 212  ManetSim.node[30].mobility  posx  ETV
vector 213  ManetSim.node[30].mobility  posy  ETV
vector 214  ManetSim.node[30].mobility  speed  ETV
vector 215  ManetSim.node[30].mobility  acceleration  ETV
vector 216  ManetSim.node[30].mobility  co2emission  ETV
vector 219  ManetSim.node[31].mobility  posx  ETV
vector 220  ManetSim.node[31].mobility  posy  ETV
vector 221  ManetSim.node[31].mobility  speed  ETV
vector 222  ManetSim.node[31].mobility  acceleration  ETV
vector 223  ManetSim.node[31].mobility  co2emission  ETV
vector 226  ManetSim.node[32].mobility  posx  ETV
vector 227  ManetSim.node[32].mobility  posy  ETV
vector 228  ManetSim.node[32].mobility  speed  ETV
vector 229  ManetSim.node[32].mobility  acceleration  ETV
vector 230  ManetSim.node[32].mobility  co2emission  ETV
vector 233  ManetSim.node[33].mobility  posx  ETV
vector 234  ManetSim.node[33].mobility  posy  ETV
vector 235  ManetSim.node[33].mobility  speed  ETV
vector 236  ManetSim.node[33].mobility  acceleration  ETV
vector 237  ManetSim.node[33].mobility  co2emission  ETV
vector 240  ManetSim.node[34].mobility  posx  ETV
vector 241  ManetSim.node[34].mobility  posy  ETV
vector 242  ManetSim.node[34].mobility  speed  ETV
vector 243  ManetSim.node[34].mobility  acceleration  ETV
vector 244  ManetSim.node[34].mobility  co2emission  ETV
vector 247  ManetSim.node[35].mobility  posx  ETV
vector 248  ManetSim.node[35].mobility  posy  ETV
vector 249  ManetSim.node[35].mobility  speed  ETV
vector 250  ManetSim.node[35].mobility  acceleration  ETV
vector 251  ManetSim.node[35].mobility  co2emission  ETV
vector 254  ManetSim.node[36].mobility  posx  ETV
vector 255  ManetSim.node[36].mobility  posy  ETV
vector 256  ManetSim.node[36].mobility  speed  ETV
vector 257  ManetSim.node[36].mobility  acceleration  ETV
vector 258  ManetSim.node[36].mobility  co2emission  ETV
vector 261  ManetSim.node[37].mobility  posx  ETV
vector 262  ManetSim.node[37].mobility  posy  ETV
vector 263  ManetSim.node[37].mobility  speed  ETV
vector 264  ManetSim.node[37].mobility  acceleration  ETV
vector 265  ManetSim.node[37].mobility  co2emission  ETV
vector 268  ManetSim.node[38].mobility  posx  ETV
vector 269  ManetSim.node[38].mobility  posy  ETV
vector 270  ManetSim.node[38].mobility  speed  ETV
vector 271  ManetSim.node[38].mobility  acceleration  ETV
vector 272  ManetSim.node[38].mobility  co2emission  ETV
vector 275  ManetSim.node[39].mobility  posx  ETV
vector 276  ManetSim.node[39].mobility  posy  ETV
vector 277  ManetSim.node[39].mobility  speed  ETV
vector 278  ManetSim.node[39].mobility  acceleration  ETV
vector 279  ManetSim.node[39].mobility  co2emission  ETV
vector 282  ManetSim.node[40].mobility  posx  ETV
vector 283  ManetSim.node[40].mobility  posy  ETV
vector 284  ManetSim.node[40].mobility  speed  ETV
vector 285  ManetSim.node[40].mobility  acceleration  ETV
vector 286  ManetSim.node[40].mobility  co2emission  ETV
vector 289  ManetSim.node[41].mobility  posx  ETV
vector 290  ManetSim.node[41].mobility  posy  ETV
vector 291  ManetSim.node[41].mobility  speed  ETV
vector 292  ManetSim.node[41].mobility  acceleration  ETV
vector 293  ManetSim.node[41].mobility  co2emission  ETV
vector 296  ManetSim.node[42].mobility  posx  ETV
vector 297  ManetSim.node[42].mobility  posy  ETV
vector 298  ManetSim.node[42].mobility  speed  ETV
vector 299  ManetSim.node[42].mobility  acceleration  ETV
vector 300  ManetSim.node[42].mobility  co2emission  ETV
vector 303  ManetSim.node[43].mobility  posx  ETV
vector 304  ManetSim.node[43].mobility  posy  ETV
vector 305  ManetSim.node[43].mobility  speed  ETV
vector 306  ManetSim.node[43].mobility  acceleration  ETV
vector 307  ManetSim.node[43].mobility  co2emission  ETV
vector 310  ManetSim.node[44].mobility  posx  ETV
vector 311  ManetSim.node[44].mobility  posy  ETV
vector 312  ManetSim.node[44].mobility  speed  ETV
vector 313  ManetSim.node[44].mobility  acceleration  ETV
vector 314  ManetSim.node[44].mobility  co2emission  ETV
vector 317  ManetSim.node[45].mobility  posx  ETV
vector 318  ManetSim.node[45].mobility  posy  ETV
vector 319  ManetSim.node[45].mobility  speed  ETV
vector 320  ManetSim.node[45].mobility  acceleration  ETV
vector 321  ManetSim.node[45].mobility  co2emission  ETV
vector 324  ManetSim.node[46].mobility  posx  ETV
vector 325  ManetSim.node[46].mobility  posy  ETV
vector 326  ManetSim.node[46].mobility  speed  ETV
vector 327  ManetSim.node[46].mobility  acceleration  ETV
vector 328  ManetSim.node[46].mobility  co2emission  ETV
vector 331  ManetSim.node[47].mobility  posx  ETV
vector 332  ManetSim.node[47].mobility  posy  ETV
vector 333  ManetSim.node[47].mobility  speed  ETV
vector 334  ManetSim.node[47].mobility  acceleration  ETV
vector 335  ManetSim.node[47].mobility  co2emission  ETV
vector 338  ManetSim.node[48].mobility  posx  ETV
vector 339  ManetSim.node[48].mobility  posy  ETV
vector 340  ManetSim.node[48].mobility  speed  ETV
vector 341  ManetSim.node[48].mobility  acceleration  ETV
vector 342  ManetSim.node[48].mobility  co2emission  ETV
vector 345  ManetSim.node[49].mobility  posx  ETV
vector 346  ManetSim.node[49].mobility  posy  ETV
vector 347  ManetSim.node[49].mobility  speed  ETV
vector 348  ManetSim.node[49].mobility  acceleration  ETV
vector 349  ManetSim.node[49].mobility  co2emission  ETV
vector 352  ManetSim.node[50].mobility  posx  ETV
vector 353  ManetSim.node[50].mobility  posy  ETV
vector 354  ManetSim.node[50].mobility  speed  ETV
vector 355  ManetSim.node[50].mobility  acceleration  ETV
vector 356  ManetSim.node[50].mobility  co2emission  ETV
vector 359  ManetSim.node[51].mobility  posx  ETV
vector 360  ManetSim.node[51].mobility  posy  ETV
vector 361  ManetSim.node[51].mobility  speed  ETV
vector 362  ManetSim.node[51].mobility  acceleration  ETV
vector 363  ManetSim.node[51].mobility  co2emission  ETV
vector 366  ManetSim.node[52].mobility  posx  ETV
vector 367  ManetSim.node[52].mobility  posy  ETV
vector 368  ManetSim.node[52].mobility  speed  ETV
vector 369  ManetSim.node[52].mobility  acceleration  ETV
vector 370  ManetSim.node[52].mobility  co2emission  ETV
vector 373  ManetSim.node[53].mobility  posx  ETV
vector 374  ManetSim.node[53].mobility  posy  ETV
vector 375  ManetSim.node[53].mobility  speed  ETV
vector 376  ManetSim.node[53].mobility  acceleration  ETV
vector 377  ManetSim.node[53].mobility  co2emission  ETV
vector 380  ManetSim.node[54].mobility  posx  ETV
vector 381  ManetSim.node[54].mobility  posy  ETV
vector 382  ManetSim.node[54].mobility  speed  ETV
vector 383  ManetSim.node[54].mobility  acceleration  ETV
vector 384  ManetSim.node[54].mobility  co2emission  ETV
vector 387  ManetSim.node[55].mobility  posx  ETV
vector 388  ManetSim.node[55].mobility  posy  ETV
vector 389  ManetSim.node[55].mobility  speed  ETV
vector 390  ManetSim.node[55].mobility  acceleration  ETV
vector 391  ManetSim.node[55].mobility  co2emission  ETV
vector 394  ManetSim.node[56].mobility  posx  ETV
vector 395  ManetSim.node[56].mobility  posy  ETV
vector 396  ManetSim.node[56].mobility  speed  ETV
vector 397  ManetSim.node[56].mobility  acceleration  ETV
vector 398  ManetSim.node[56].mobility  co2emission  ETV
vector 401  ManetSim.node[57].mobility  posx  ETV
vector 402  ManetSim.node[57].mobility  posy  ETV
vector 403  ManetSim.node[57].mobility  speed  ETV
vector 404  ManetSim.node[57].mobility  acceleration  ETV
vector 405  ManetSim.node[57].mobility  co2emission  ETV
vector 408  ManetSim.node[58].mobility  posx  ETV
vector 409  ManetSim.node[58].mobility  posy  ETV
vector 410  ManetSim.node[58].mobility  speed  ETV
vector 411  ManetSim.node[58].mobility  acceleration  ETV
vector 412  ManetSim.node[58].mobility  co2emission  ETV
vector 415  ManetSim.node[59].mobility  posx  ETV
vector 416  ManetSim.node[59].mobility  posy  ETV
vector 417  ManetSim.node[59].mobility  speed  ETV
vector 418  ManetSim.node[59].mobility  acceleration  ETV
vector 419  ManetSim.node[59].mobility  co2emission  ETV
vector 422  ManetSim.node[60].mobility  posx  ETV
vector 423  ManetSim.node[60].mobility  posy  ETV
vector 424  ManetSim.node[60].mobility  speed  ETV
vector 425  ManetSim.node[60].mobility  acceleration  ETV
vector 426  ManetSim.node[60].mobility  co2emission  ETV
vector 429  ManetSim.node[61].mobility  posx  ETV
vector 430  ManetSim.node[61].mobility  posy  ETV
vector 431  ManetSim.node[61].mobility  speed  ETV
vector 432  ManetSim.node[61].mobility  acceleration  ETV
vector 433  ManetSim.node[61].mobility  co2emission  ETV
vector 436  ManetSim.node[62].mobility  posx  ETV
vector 437  ManetSim.node[62].mobility  posy  ETV
vector 438  ManetSim.node[62].mobility  speed  ETV
vector 439  ManetSim.node[62].mobility  acceleration  ETV
vector 440  ManetSim.node[62].mobility  co2emission  ETV
vector 443  ManetSim.node[63].mobility  posx  ETV
vector 444  ManetSim.node[63].mobility  posy  ETV
vector 445  ManetSim.node[63].mobility  speed  ETV
vector 446  ManetSim.node[63].mobility  acceleration  ETV
vector 447  ManetSim.node[63].mobility  co2emission  ETV
vector 450  ManetSim.node[64].mobility  posx  ETV
vector 451  ManetSim.node[64].mobility  posy  ETV
vector 452  ManetSim.node[64].mobility  speed  ETV
vector 453  ManetSim.node[64].mobility  acceleration  ETV
vector 454  ManetSim.node[64].mobility  co2emission  ETV
vector 457  ManetSim.node[65].mobility  posx  ETV
vector 458  ManetSim.node[65].mobility  posy  ETV
vector 459  ManetSim.node[65].mobility  speed  ETV
vector 460  ManetSim.node[65].mobility  acceleration  ETV
vector 461  ManetSim.node[65].mobility  co2emission  ETV
vector 464  ManetSim.node[66].mobility  posx  ETV
vector 465  ManetSim.node[66].mobility  posy  ETV
vector 466  ManetSim.node[66].mobility  speed  ETV
vector 467  ManetSim.node[66].mobility  acceleration  ETV
vector 468  ManetSim.node[66].mobility  co2emission  ETV
vector 471  ManetSim.node[67].mobility  posx  ETV
vector 472  ManetSim.node[67].mobility  posy  ETV
vector 473  ManetSim.node[67].mobility  speed  ETV
vector 474  ManetSim.node[67].mobility  acceleration  ETV
vector 475  ManetSim.node[67].mobility  co2emission  ETV
vector 478  ManetSim.node[68].mobility  posx  ETV
vector 479  ManetSim.node[68].mobility  posy  ETV
vector 480  ManetSim.node[68].mobility  speed  ETV
vector 481  ManetSim.node[68].mobility  acceleration  ETV
vector 482  ManetSim.node[68].mobility  co2emission  ETV
vector 485  ManetSim.node[69].mobility  posx  ETV
vector 486  ManetSim.node[69].mobility  posy  ETV
vector 487  ManetSim.node[69].mobility  speed  ETV
vector 488  ManetSim.node[69].mobility  acceleration  ETV
vector 489  ManetSim.node[69].mobility  co2emission  ETV
vector 492  ManetSim.node[70].mobility  posx  ETV
vector 493  ManetSim.node[70].mobility  posy  ETV
vector 494  ManetSim.node[70].mobility  speed  ETV
vector 495  ManetSim.node[70].mobility  acceleration  ETV
vector 496  ManetSim.node[70].mobility  co2emission  ETV
vector 499  ManetSim.node[71].mobility  posx  ETV
vector 500  ManetSim.node[71].mobility  posy  ETV
vector 501  ManetSim.node[71].mobility  speed  ETV
vector 502  ManetSim.node[71].mobility  acceleration  ETV
vector 503  ManetSim.node[71].mobility  co2emission  ETV
vector 506  ManetSim.node[72].mobility  posx  ETV
vector 507  ManetSim.node[72].mobility  posy  ETV
vector 508  ManetSim.node[72].mobility  speed  ETV
vector 509  ManetSim.node[72].mobility  acceleration  ETV
vector 510  ManetSim.node[72].mobility  co2emission  ETV
vector 513  ManetSim.node[73].mobility  posx  ETV
vector 514  ManetSim.node[73].mobility  posy  ETV
vector 515  ManetSim.node[73].mobility  speed  ETV
vector 516  ManetSim.node[73].mobility  acceleration  ETV
vector 517  ManetSim.node[73].mobility  co2emission  ETV
vector 520  ManetSim.node[74].mobility  posx  ETV
vector 521  ManetSim.node[74].mobility  posy  ETV
vector 522  ManetSim.node[74].mobility  speed  ETV
vector 523  ManetSim.node[74].mobility  acceleration  ETV
vector 524  ManetSim.node[74].mobility  co2emission  ETV
vector 527  ManetSim.node[75].mobility  posx  ETV
vector 528  ManetSim.node[75].mobility  posy  ETV
vector 529  ManetSim.node[75].mobility  speed  ETV
vector 530  ManetSim.node[75].mobility  acceleration  ETV
vector 531  ManetSim.node[75].mobility  co2emission  ETV
vector 534  ManetSim.node[76].mobility  posx  ETV
vector 535  ManetSim.node[76].mobility  posy  ETV
vector 536  ManetSim.node[76].mobility  speed  ETV
vector 537  ManetSim.node[76].mobility  acceleration  ETV
vector 538  ManetSim.node[76].mobility  co2emission  ETV
vector 541  ManetSim.node[77].mobility  posx  ETV
vector 542  ManetSim.node[77].mobility  posy  ETV
vector 543  ManetSim.node[77].mobility  speed  ETV
vector 544  ManetSim.node[77].mobility  acceleration  ETV
vector 545  ManetSim.node[77].mobility  co2emission  ETV
vector 548  ManetSim.node[78].mobility  posx  ETV
vector 549  ManetSim.node[78].mobility  posy  ETV
vector 550  ManetSim.node[78].mobility  speed  ETV
vector 551  ManetSim.node[78].mobility  acceleration  ETV
vector 552  ManetSim.node[78].mobility  co2emission  ETV
vector 555  ManetSim.node[79].mobility  posx  ETV
vector 556  ManetSim.node[79].mobility  posy  ETV
vector 557  ManetSim.node[79].mobility  speed  ETV
vector 558  ManetSim.node[79].mobility  acceleration  ETV
vector 559  ManetSim.node[79].mobility  co2emission  ETV
vector 562  ManetSim.node[80].mobility  posx  ETV
vector 563  ManetSim.node[80].mobility  posy  ETV
vector 564  ManetSim.node[80].mobility  speed  ETV
vector 565  ManetSim.node[80].mobility  acceleration  ETV
vector 566  ManetSim.node[80].mobility  co2emission  ETV
vector 569  ManetSim.node[81].mobility  posx  ETV
vector 570  ManetSim.node[81].mobility  posy  ETV
vector 571  ManetSim.node[81].mobility  speed  ETV
vector 572  ManetSim.node[81].mobility  acceleration  ETV
vector 573  ManetSim.node[81].mobility  co2emission  ETV
vector 576  ManetSim.node[82].mobility  posx  ETV
vector 577  ManetSim.node[82].mobility  posy  ETV
vector 578  ManetSim.node[82].mobility  speed  ETV
vector 579  ManetSim.node[82].mobility  acceleration  ETV
vector 580  ManetSim.node[82].mobility  co2emission  ETV
vector 583  ManetSim.node[83].mobility  posx  ETV
vector 584  ManetSim.node[83].mobility  posy  ETV
vector 585  ManetSim.node[83].mobility  speed  ETV
vector 586  ManetSim.node[83].mobility  acceleration  ETV
vector 587  ManetSim.node[83].mobility  co2emission  ETV
vector 590  ManetSim.node[84].mobility  posx  ETV
vector 591  ManetSim.node[84].mobility  posy  ETV
vector 592  ManetSim.node[84].mobility  speed  ETV
vector 593  ManetSim.node[84].mobility  acceleration  ETV
vector 594  ManetSim.node[84].mobility  co2emission  ETV
vector 597  ManetSim.node[85].mobility  posx  ETV
vector 598  ManetSim.node[85].mobility  posy  ETV
vector 599  ManetSim.node[85].mobility  speed  ETV
vector 600  ManetSim.node[85].mobility  acceleration  ETV
vector 601  ManetSim.node[85].mobility  co2emission  ETV
vector 604  ManetSim.node[86].mobility  posx  ETV
vector 605  ManetSim.node[86].mobility  posy  ETV
vector 606  ManetSim.node[86].mobility  speed  ETV
vector 607  ManetSim.node[86].mobility  acceleration  ETV
vector 608  ManetSim.node[86].mobility  co2emission  ETV
vector 611  ManetSim.node[87].mobility  posx  ETV
vector 612  ManetSim.node[87].mobility  posy  ETV
vector 613  ManetSim.node[87].mobility  speed  ETV
vector 614  ManetSim.node[87].mobility  acceleration  ETV
vector 615  ManetSim.node[87].mobility  co2emission  ETV
vector 618  ManetSim.node[88].mobility  posx  ETV
vector 619  ManetSim.node[88].mobility  posy  ETV
vector 620  ManetSim.node[88].mobility  speed  ETV
vector 621  ManetSim.node[88].mobility  acceleration  ETV
vector 622  ManetSim.node[88].mobility  co2emission  ETV
vector 625  ManetSim.node[89].mobility  posx  ETV
vector 626  ManetSim.node[89].mobility  posy  ETV
vector 627  ManetSim.node[89].mobility  speed  ETV
vector 628  ManetSim.node[89].mobility  acceleration  ETV
vector 629  ManetSim.node[89].mobility  co2emission  ETV
vector 632  ManetSim.node[90].mobility  posx  ETV
vector 633  ManetSim.node[90].mobility  posy  ETV
vector 634  ManetSim.node[90].mobility  speed  ETV
vector 635  ManetSim.node[90].mobility  acceleration  ETV
vector 636  ManetSim.node[90].mobility  co2emission  ETV
vector 639  ManetSim.node[91].mobility  posx  ETV
vector 640  ManetSim.node[91].mobility  posy  ETV
vector 641  ManetSim.node[91].mobility  speed  ETV
vector 642  ManetSim.node[91].mobility  acceleration  ETV
vector 643  ManetSim.node[91].mobility  co2emission  ETV
vector 646  ManetSim.node[92].mobility  posx  ETV
vector 647  ManetSim.node[92].mobility  posy  ETV
vector 648  ManetSim.node[92].mobility  speed  ETV
vector 649  ManetSim.node[92].mobility  acceleration  ETV
vector 650  ManetSim.node[92].mobility  co2emission  ETV
vector 653  ManetSim.node[93].mobility  posx  ETV
vector 654  ManetSim.node[93].mobility  posy  ETV
vector 655  ManetSim.node[93].mobility  speed  ETV
vector 656  ManetSim.node[93].mobility  acceleration  ETV
vector 657  ManetSim.node[93].mobility  co2emission  ETV
vector 660  ManetSim.node[94].mobility  posx  ETV
vector 661  ManetSim.node[94].mobility  posy  ETV
vector 662  ManetSim.node[94].mobility  speed  ETV
vector 663  ManetSim.node[94].mobility  acceleration  ETV
vector 664  ManetSim.node[94].mobility  co2emission  ETV
vector 667  ManetSim.node[95].mobility  posx  ETV
vector 668  ManetSim.node[95].mobility  posy  ETV
vector 669  ManetSim.node[95].mobility  speed  ETV
vector 670  ManetSim.node[95].mobility  acceleration  ETV
vector 671  ManetSim.node[95].mobility  co2emission  ETV
vector 674  ManetSim.node[96].mobility  posx  ETV
vector 675  ManetSim.node[96].mobility  posy  ETV
vector 676  ManetSim.node[96].mobility  speed  ETV
2	26422 84479 2 14347 0.1 288.3 2883 242.87859339116 2450.6575175748 4657835.1843523 9037218360.3258
3	110901 84480 2 14347 0.1 288.3 2883 1216.0842899689 2120.9568794034 4806506.7648082 8286619473.5477
4	195381 80745 3 14347 0.2 288.3 2882 0 13.999975727196 33550.405989399 450549.50082419
5	276126 83286 4 14347 0.3 288.3 2881 -4.5 2.6 135.90494183104 3620.2978017678
6	359412 73583 4 14347 0.3 288.3 2881 0.973 10.618238919551 7136.6068113345 26577.491160509
9	432995 83748 32 14347 3.1 288.3 2853 280.53957881161 2450.6492225801 4642027.8916031 9017456299.6271
10	516743 86596 32 14347 3.1 288.3 2853 1216.0598008186 2120.9571048282 4758061.3197361 8206370711.1813
11	603339 84129 33 14347 3.2 288.3 2852 0 13.999952244477 33131.596323952 441998.16689168
12	687468 86803 34 14347 3.3 288.3 2851 -4.5 2.6 136.09278505693 3567.5921841791
13	774271 75985 34 14347 3.3 288.3 2851 0.973 10.692591298839 7095.6650628157 26719.941920343
16	850256 85782 62 14347 6.1 288.3 2823 314.23546428722 2450.6181702022 4624725.502865 8996775394.2386
17	936038 85774 62 14347 6.1 288.3 2823 1216.0532863094 2120.9404941853 4707309.9193932 8119750955.3965
18	1021812 83819 63 14347 6.2 288.3 2822 0 13.999992125905 32761.90897412 435552.98583644
19	1105631 86507 64 14347 6.3 288.3 2821 -4.5 2.6 135.73465173218 3514.9623661554
20	1192138 75908 64 14347 6.3 288.3 2821 0.973 10.397915429126 6984.9358636897 26052.740700556
23	1268046 84967 92 14347 9.1 288.3 2793 347.97972816415 2450.6591255628 4604511.4568572 8969761176.7164
24	1353013 84963 92 14347 9.1 288.3 2793 1216.0705467248 2120.9583033323 4658902.4483926 8039847341.8744
25	1437976 83423 93 14347 9.2 288.3 2792 0 13.999880711909 32386.354227192 429410.67160616
26	1521399 86116 94 14347 9.3 288.3 2791 -4.5 2.6 135.59226088763 3477.4131610675
27	1607515 75222 94 14347 9.3 288.3 2791 0.973 10.220043610748 6922.0077131979 25881.318078648
30	1682737 84133 122 14347 12.1 288.3 2763 368.05251508835 2450.6220583 4584399.0830124 8943408453.3356
31	1766870 84139 122 14347 12.1 288.3 2763 1216.0675879857 2120.941075962 4609420.0158725 7958042494.8501
32	1851009 82990 123 14347 12.2 288.3 2762 0 13.999990419396 32034.127956527 423846.45345421
33	1933999 85620 124 14347 12.3 288.3 2761 -4.5 2.6 136.23189010918 3430.4172842794
34	2019619 74606 124 14347 12.3 288.3 2761 0.973 10.388826143728 6871.7025609564 25849.07149416
37	2094225 83272 152 14347 15.1 288.3 2733 381.44884413772 2450.6160942665 4562645.5210273 8913457923.9828
38	2177497 83259 152 14347 15.1 288.3 2733 1216.0735799354 2120.9304202534 4562193.3741399 7881869516.6374
39	2260756 82459 153 14347 15.2 288.3 2732 0 13.999963194737 31657.362471667 417865.3871592
40	2343215 85134 154 14347 15.3 288.3 2731 -4.5 2.6 136.18026319447 3437.2104715926
41	2428349 73806 154 14347 15.3 288.3 2731 0.973 10.298469018849 6783.2772864724 25507.714965191
44	2502155 82409 182 14347 18.1 288.3 2703 393.2539165878 2450.6124823678 4543446.1119503 8891644204.4903
45	2584564 82418 182 14347 18.1 288.3 2703 1216.1168660587 2120.9346210342 4514708.3969629 7805289858.1089
46	2666982 81992 183 14347 18.2 288.3 2702 0 13.999949261174 31333.838357378 412852.6476673
47	2748974 84601 184 14347 18.3 288.3 2701 -4.5 2.6 135.94237112903 3441.9030647598
48	2833575 73579 184 14347 18.3 288.3 2701 0.973 10.387997101441 6722.8336512685 25107.258083963
51	2907154 81537 212 14347 21.1 288.3 2673 406.03474093403 2450.6423254793 4521213.5036865 8861464345.7689
52	2988691 81548 212 14347 21.1 288.3 2673 1216.0532556698 2120.9667099304 4469896.9857868 7736137669.9197
53	3070239 81520 213 14347 21.2 288.3 2672 0 13.999814914761 30980.253001117 407406.38968372
54	3151759 84075 214 14347 21.3 288.3 2671 -4.5 2.6 135.72446906483 3500.8385970239
55	3235834 72902 214 14347 21.3 288.3 2671 0.973 10.290987344485 6705.3112751864 25386.704055994
58	3308736 80662 242 14347 24.1 288.3 2643 418.15836556093 2450.6144861997 4497377.4737642 8827043645.828