file 744115 1394499972                                          
version 2
run nodebug-0-20140310-21:05:58-5740
attr configname nodebug
attr datetime 20140310-21:05:58
attr experiment nodebug
attr inifile omnetpp.ini
attr iterationvars ""
attr iterationvars2 $repetition=0
attr measurement ""
attr network Traci
attr processid 5740
attr repetition 0
attr replication #0
attr resultdir results
attr runnumber 0
attr seedset 0

vector 2  Traci.node[0].mobility  posx  ETV
vector 3  Traci.node[0].mobility  posy  ETV
vector 4  Traci.node[0].mobility  speed  ETV
vector 5  Traci.node[0].mobility  acceleration  ETV
vector 6  Traci.node[0].mobility  co2emission  ETV
vector 9  Traci.node[1].mobility  posx  ETV
vector 10  Traci.node[1].mobility  posy  ETV
vector 11  Traci.node[1].mobility  speed  ETV
vector 12  Traci.node[1].mobility  acceleration  ETV
vector 13  Traci.node[1].mobility  co2emission  ETV
vector 16  Traci.node[2].mobility  posx  ETV
vector 17  Traci.node[2].mobility  posy  ETV
vector 18  Traci.node[2].mobility  speed  ETV
vector 19  Traci.node[2].mobility  acceleration  ETV
vector 20  Traci.node[2].mobility  co2emission  ETV
vector 23  Traci.node[3].mobility  posx  ETV
vector 24  Traci.node[3].mobility  posy  ETV
vector 25  Traci.node[3].mobility  speed  ETV
vector 26  Traci.node[3].mobility  acceleration  ETV
vector 27  Traci.node[3].mobility  co2emission  ETV
vector 30  Traci.node[4].mobility  posx  ETV
vector 31  Traci.node[4].mobility  posy  ETV
vector 32  Traci.node[4].mobility  speed  ETV
vector 33  Traci.node[4].mobility  acceleration  ETV
vector 34  Traci.node[4].mobility  co2emission  ETV
vector 37  Traci.node[5].mobility  posx  ETV
vector 38  Traci.node[5].mobility  posy  ETV
vector 39  Traci.node[5].mobility  speed  ETV
vector 40  Traci.node[5].mobility  acceleration  ETV
vector 41  Traci.node[5].mobility  co2emission  ETV
vector 44  Traci.node[6].mobility  posx  ETV
vector 45  Traci.node[6].mobility  posy  ETV
vector 46  Traci.node[6].mobility  speed  ETV
vector 47  Traci.node[6].mobility  acceleration  ETV
vector 48  Traci.node[6].mobility  co2emission  ETV
vector 51  Traci.node[7].mobility  posx  ETV
vector 52  Traci.node[7].mobility  posy  ETV
vector 53  Traci.node[7].mobility  speed  ETV
vector 54  Traci.node[7].mobility  acceleration  ETV
vector 55  Traci.node[7].mobility  co2emission  ETV
vector 58  Traci.node[8].mobility  posx  ETV
vector 59  Traci.node[8].mobility  posy  ETV
vector 60  Traci.node[8].mobility  speed  ETV
vector 61  Traci.node[8].mobility  acceleration  ETV
vector 62  Traci.node[8].mobility  co2emission  ETV
vector 65  Traci.node[9].mobility  posx  ETV
vector 66  Traci.node[9].mobility  posy  ETV
vector 67  Traci.node[9].mobility  speed  ETV
vector 68  Traci.node[9].mobility  acceleration  ETV
vector 69  Traci.node[9].mobility  co2emission  ETV
vector 72  Traci.node[10].mobility  posx  ETV
vector 73  Traci.node[10].mobility  posy  ETV
vector 74  Traci.node[10].mobility  speed  ETV
vector 75  Traci.node[10].mobility  acceleration  ETV
vector 76  Traci.node[10].mobility  co2emission  ETV
vector 79  Traci.node[11].mobility  posx  ETV
vector 80  Traci.node[11].mobility  posy  ETV
vector 81  Traci.node[11].mobility  speed  ETV
vector 82  Traci.node[11].mobility  acceleration  ETV
vector 83  Traci.node[11].mobility  co2emission  ETV
vector 86  Traci.node[12].mobility  posx  ETV
vector 87  Traci.node[12].mobility  posy  ETV
vector 88  Traci.node[12].mobility  speed  ETV
vector 89  Traci.node[12].mobility  acceleration  ETV
vector 90  Traci.node[12].mobility  co2emission  ETV
vector 93  Traci.node[13].mobility  posx  ETV
vector 94  Traci.node[13].mobility  posy  ETV
vector 95  Traci.node[13].mobility  speed  ETV
vector 96  Traci.node[13].mobility  acceleration  ETV
vector 97  Traci.node[13].mobility  co2emission  ETV
vector 100  Traci.node[14].mobility  posx  ETV
vector 101  Traci.node[14].mobility  posy  ETV
vector 102  Traci.node[14].mobility  speed  ETV
vector 103  Traci.node[14].mobility  acceleration  ETV
vector 104  Traci.node[14].mobility  co2emission  ETV
vector 107  Traci.node[15].mobility  posx  ETV
vector 108  Traci.node[15].mobility  posy  ETV
vector 109  Traci.node[15].mobility  speed  ETV
vector 110  Traci.node[15].mobility  acceleration  ETV
vector 111  Traci.node[15].mobility  co2emission  ETV
vector 114  Traci.node[16].mobility  posx  ETV
vector 115  Traci.node[16].mobility  posy  ETV
vector 116  Traci.node[16].mobility  speed  ETV
vector 117  Traci.node[16].mobility  acceleration  ETV
vector 118  Traci.node[16].mobility  co2emission  ETV
vector 121  Traci.node[17].mobility  posx  ETV
vector 122  Traci.node[17].mobility  posy  ETV
vector 123  Traci.node[17].mobility  speed  ETV
vector 124  Traci.node[17].mobility  acceleration  ETV
vector 125  Traci.node[17].mobility  co2emission  ETV
vector 128  Traci.node[18].mobility  posx  ETV
vector 129  Traci.node[18].mobility  posy  ETV
vector 130  Traci.node[18].mobility  speed  ETV
vector 131  Traci.node[18].mobility  acceleration  ETV
vector 132  Traci.node[18].mobility  co2emission  ETV
2	5116 15029 2 551 0.1 55 550 2333.8556597092 2450.6575175748 1326596.378477 3200568514.82
3	20145 15024 2 551 0.1 55 550 1578.0861504339 2088.2759603038 976138.90936914 1744699303.2206
4	35169 15006 3 551 0.2 55 549 0.25286542447004 13.999975727196 6214.1959529004 77713.455691721
5	50175 15198 4 551 0.3 55 548 -4.4228951416886 2.6 136.21811925306 1459.5255994107
6	65373 13261 4 551 0.3 55 548 0.973 10.079222564039 1742.4300440335 8281.172132297
9	78634 14272 32 551 3.1 55 520 2333.8300435923 2450.6492225801 1252932.6884004 3019740487.3043
10	92906 14777 32 551 3.1 55 520 1578.0861504339 2041.0113395918 912595.86593155 1610814474.1754
11	107683 14755 33 551 3.2 55 519 0.25157376560476 13.999952244477 5740.4744628328 70496.678388313
12	122438 14740 34 551 3.3 55 518 -4.5 2.6 136.7809030584 1578.2621677612
13	137178 13081 34 551 3.3 55 518 0.973 9.4720801065986 1689.9666132106 8197.5470468757
16	150259 13969 62 551 6.1 55 490 2333.8505606231 2450.6181702022 1179402.4905308 2839537404.3751
17	164228 13966 62 551 6.1 55 490 1578.0861504339 1994.1953318622 850829.77479531 1484083745.292
18	178194 13954 63 551 6.2 55 489 0.25726502669835 13.999992125905 5270.8726433973 63626.922604856
19	192148 13947 64 551 6.3 55 488 -4.5 2.6 137.27568494504 1550.2477449112
20	206095 12453 64 551 6.3 55 488 0.973 10.397915429126 1598.0014454034 7879.0822505979
23	218548 13181 92 551 9.1 55 460 2333.8538945733 2450.6591255628 1106061.4302916 2660225499.1634
24	231729 13183 92 551 9.1 55 460 1578.0861504339 1950.6799844308 791239.96881347 1365844941.325
25	244912 13159 93 551 9.2 55 459 0.24904955297103 13.999377640586 4834.3038659465 57426.263516213
26	258071 13088 94 551 9.3 55 458 -4.5 2.6 137.11855948653 1523.7240605075
27	271159 11698 94 551 9.3 55 458 0.973 10.206745303883 1534.0231935243 7669.8604472564
30	282857 12351 122 551 12.1 55 430 2333.8278339317 2449.2783721747 1032553.6432042 2480113849.2789
31	295208 12346 122 551 12.1 55 430 1578.0861504339 1909.4398928955 733356.60495279 1254158270.7553
32	307554 12314 123 551 12.2 55 429 0.25788759189239 13.999990419396 4420.7250195445 51677.319963598
33	319868 12212 124 551 12.3 55 428 -4.5 2.6 137.36537425408 1505.5647284469
34	332080 10960 124 551 12.3 55 428 0.973 10.180216000427 1457.2648006843 7437.2945824681
37	343040 11474 152 551 15.1 55 400 2333.8342707189 2446.2692427456 959111.15916113 2300321977.0386
38	354514 11470 152 551 15.1 55 400 1578.0861504339 1868.0584293781 676733.66360935 1147266126.9067
39	365984 11453 153 551 15.2 55 399 0.25719840018917 13.998320700969 4005.7302537403 45935.123415133
40	377437 11309 154 551 15.3 55 398 -4.5 2.6 136.46819381254 1498.903827976
41	388746 10163 154 551 15.3 55 398 0.973 10.298469018849 1376.196854605 7147.3886514274
44	398909 10621 182 551 18.1 55 370 2333.8480209213 2443.1231160548 885740.36140419 2120879879.4547
45	409530 10628 182 551 18.1 55 370 1578.0861504339 1824.7929833625 621043.89766729 1043954654.6872
46	420158 10591 183 551 18.2 55 369 0.25275420577498 13.999285674586 3571.9825642843 39797.526071133
47	430749 10358 184 551 18.3 55 368 -4.5 2.6 136.97369735427 1499.8701867178
48	441107 9401 184 551 18.3 55 368 0.973 10.387997101441 1317.6304557372 6900.8054256618
51	450508 9758 212 551 21.1 55 340 2333.8328807489 2440.131682685 812379.30644004 1941501513.8636
52	460266 9763 212 551 21.1 55 340 1578.0861504339 1783.6548755569 566986.8559196 946520336.19391
53	470029 9739 213 551 21.2 55 339 0.2559691206296 13.999416294557 3159.5343329322 34145.321147145
54	479768 9456 214 551 21.3 55 338 -4.5 2.6 137.10316483432 1479.5886035434
55	489224 8598 214 551 21.3 55 338 0.973 10.290987344485 1242.5967421736 6790.9775368725
58	497822 8882 242 551 24.1 55 310 2333.8530024915 2436.5712562213 739211.56493663 1763051020.4212
59	506704 8885 242 551 24.1 55 310 1578.0861504339 1743.0648767445 514131.81740882 853385071.9035
60	515589 8874 243 551 24.2 55 309 0.24736292743497 13.986241863333 2751.9254337238 28444.047428479
61	524463 8563 244 551 24.3 55 308 -4.5 2.6 137.13090984589 1474.485470394
62	533026 7820 244 551 24.3 55 308 0.973 9.9481485070992 1179.0549136983 6565.1106868935
65	540846 8037 272 551 27.1 55 280 2333.854024214 2431.279602649 666306.12064805 1585866124.8723
66	548883 8037 272 551 27.1 55 280 1578.0861504339 1708.243105568 462478.16345592 764435824.1162
67	556920 8015 273 551 27.2 55 279 0.25588914017053 13.888523833766 2395.0408336719 23989.466547205
68	564935 7678 274 551 27.3 55 278 -4.5 2.6 90.736834462711 1359.1446821477
69	572613 6962 274 551 27.3 55 278 0.973 10.591257194694 984.60643290141 5142.9314167468
72	579575 7175 302 551 30.1 55 250 2333.8357269984 2417.8748427574 593530.72403208 1409327743.813
73	586750 7168 302 551 30.1 55 250 1578.0861504339 1700.4657553341 411405.37690742 677489158.24144
74	593918 7148 303 551 30.2 55 249 0.25071311543253 13.885120534068 2205.567185616 22822.686353967
75	601066 6979 304 551 30.3 55 248 -4.5 2.6 39.416022983103 1232.1174930833
76	608045 6107 304 551 30.3 55 248 0.973 9.9424201234352 853.22835218907 4642.6705042573
79	614152 6317 332 551 33.1 55 220 2333.830497186 2415.8694684898 521244.08923637 1235149798.9
80	620469 6312 332 551 33.1 55 220 1578.0861504339 1698.431097432 360380.48474726 590707889.5571
81	626781 6290 333 551 33.2 55 219 0.24895885090507 13.879220991835 1994.8959237311 21218.157737495
82	633071 6143 334 551 33.3 55 218 -4.5 2.6 94.293639487885 999.4654274723
83	639214 5576 334 551 33.3 55 218 0.973 10.267111960035 802.9920936635 4309.9091309753
86	644790 5451 362 551 36.1 55 190 2333.8532438335 2415.8694684898 449911.5463945 1065535407.2994
87	650241 5452 362 551 36.1 55 190 1578.0861504339 1691.762779519 309428.4028062 504178163.09695
88	655693 5436 363 551 36.2 55 189 0.25197977335495 13.884923856433 1610.4722365856 16337.016759692
89	661129 5256 364 551 36.3 55 188 -4.5 2.6 136.2869473939 875.4812987525
90	666385 4905 364 551 36.3 55 188 0.973 10.342082379982 753.0391114615 4214.0698836047
93	671290 4590 392 551 39.1 55 160 2333.8437399686 2415.8694684898 379574.00018921 900622371.54602
94	675880 4590 392 551 39.1 55 160 1578.0861504339 1669.4332420342 258987.50837898 419371083.10839
95	680470 4567 393 551 39.2 55 159 0.24963519276562 13.865934868664 1272.6866901254 12406.603352698
96	685037 4393 394 551 39.3 55 158 -4.5 2.6 79.037438540714 756.76697285601
97	689430 4017 394 551 39.3 55 158 0.973 9.7216110857923 545.12361342839 2745.6639109562
100	693447 3860 422 551 42.1 55 130 2337.1349934005 2415.8694684898 309458.14598803 736742065.77682
101	697307 3861 422 551 42.1 55 130 1578.0861504339 1654.062129071 209236.30800758 336857871.87797
102	701168 3836 423 551 42.2 55 129 0.25023312625592 13.881178743786 1108.1870102814 11372.779386773
103	705004 3802 424 551 42.3 55 128 -4.5 2.5951772950124 50.06193710362 589.76893202937
104	708806 3385 424 551 42.3 55 128 0.973 9.0875935908204 436.16930545678 2245.2978468035
107	712191 2976 452 551 45.1 55 100 2352.2159900737 2415.8694684898 239146.22246253 571949437.82667
108	715167 2970 452 551 45.1 55 100 1578.0861504339 1637.2061148118 159851.28354281 255561111.21658
109	718137 2944 453 551 45.2 55 99 0.25204671007162 13.88615189282 886.85895835707 9732.8528138284
110	721081 2958 454 551 45.3 55 98 -3.8098199461779 2.5919355558231 102.36990867119 361.25472673929
111	724039 2685 454 551 45.3 55 98 0.973 10.098270317367 382.37314433875 2086.2421937646
114	726724 2078 482 551 48.1 55 70 2381.5679295362 2415.8694684898 168237.31167928 404347411.68004
115	728802 2080 482 551 48.1 55 70 1578.0861504339 1607.4766438175 111083.20083274 176283903.07951
116	730882 2050 483 551 48.2 55 69 0.25050432128762 13.180296583443 471.75076741031 4172.1315017098
117	732932 2021 484 551 48.3 55 68 1.3250837082509 2.587113620853 129.29792262156 256.44436327359
118	734953 2023 484 551 48.3 55 68 1.4399839882341 9.3062122601923 314.39788034035 1726.4032654677
121	736976 1188 512 551 51.1 55 40 2403.3039765884 2415.8694684898 96446.640382366 232549501.77402
122	738164 1190 512 551 51.1 55 40 1578.0861504339 1585.4610226275 63206.367814519 99876297.661614
123	739354 1162 513 551 51.2 55 39 0.25473290626938 7.4311663465758 156.60782303734 791.25349267149
124	740516 1129 514 551 51.3 55 38 1.3275645024609 2.5626605308162 71.764334403065 141.49901837862
125	741645 1130 514 551 51.3 55 38 1.4502564804238 5.5458996392243 118.30304106051 406.1374152941
128	742775 296 542 551 54.1 55 10 2415.0646584852 2415.8694684898 24155.94868822 58350986.436128
129	743071 298 542 551 54.1 55 10 1578.0861504339 1578.3816724671 15781.869819986 24906741.600375
130	743369 270 543 551 54.2 55 9 0.25617391778133 2.021648555781 10.595625179519 15.353662794236
131	743639 238 544 551 54.3 55 8 1.6655739085257 2.5576969925566 17.654746379996 39.472180790628
132	743877 238 544 551 54.3 55 8 1.4502731474401 2.2792706050293 14.702523667437 27.498957199293
