                                                                
version 2
run nodebug-0-20140310-21:37:09-7096
attr configname nodebug
attr datetime 20140310-21:37:09
attr experiment nodebug
attr inifile omnetpp.ini
attr iterationvars ""
attr iterationvars2 $repetition=0
attr measurement ""
attr network Traci
attr processid 7096
attr repetition 0
attr replication #0
attr resultdir results
attr runnumber 0
attr seedset 0

vector 2  Traci.node[0].mobility  posx  ETV
vector 3  Traci.node[0].mobility  posy  ETV
vector 4  Traci.node[0].mobility  speed  ETV
vector 5  Traci.node[0].mobility  acceleration  ETV
vector 6  Traci.node[0].mobility  co2emission  ETV
vector 9  Traci.node[1].mobility  posx  ETV
vector 10  Traci.node[1].mobility  posy  ETV
vector 11  Traci.node[1].mobility  speed  ETV
vector 12  Traci.node[1].mobility  acceleration  ETV
vector 13  Traci.node[1].mobility  co2emission  ETV
vector 16  Traci.node[2].mobility  posx  ETV
vector 17  Traci.node[2].mobility  posy  ETV
vector 18  Traci.node[2].mobility  speed  ETV
vector 19  Traci.node[2].mobility  acceleration  ETV
vector 20  Traci.node[2].mobility  co2emission  ETV
vector 23  Traci.node[3].mobility  posx  ETV
vector 24  Traci.node[3].mobility  posy  ETV
vector 25  Traci.node[3].mobility  speed  ETV
vector 26  Traci.node[3].mobility  acceleration  ETV
vector 27  Traci.node[3].mobility  co2emission  ETV
vector 30  Traci.node[4].mobility  posx  ETV
vector 31  Traci.node[4].mobility  posy  ETV
vector 32  Traci.node[4].mobility  speed  ETV
vector 33  Traci.node[4].mobility  acceleration  ETV
vector 34  Traci.node[4].mobility  co2emission  ETV
vector 37  Traci.node[5].mobility  posx  ETV
vector 38  Traci.node[5].mobility  posy  ETV
vector 39  Traci.node[5].mobility  speed  ETV
vector 40  Traci.node[5].mobility  acceleration  ETV
vector 41  Traci.node[5].mobility  co2emission  ETV
vector 44  Traci.node[6].mobility  posx  ETV
vector 45  Traci.node[6].mobility  posy  ETV
vector 46  Traci.node[6].mobility  speed  ETV
vector 47  Traci.node[6].mobility  acceleration  ETV
vector 48  Traci.node[6].mobility  co2emission  ETV
