version 2
run nodebug-0-20140310-23:35:46-7720
attr configname nodebug
attr datetime 20140310-23:35:46
attr experiment nodebug
attr inifile omnetpp.ini
attr iterationvars ""
attr iterationvars2 $repetition=0
attr measurement ""
attr network Traci
attr processid 7720
attr repetition 0
attr replication #0
attr resultdir results
attr runnumber 0
attr seedset 0

vector 2  Traci.node[0].mobility  posx  ETV
vector 3  Traci.node[0].mobility  posy  ETV
vector 4  Traci.node[0].mobility  speed  ETV
vector 5  Traci.node[0].mobility  acceleration  ETV
vector 6  Traci.node[0].mobility  co2emission  ETV
vector 9  Traci.node[1].mobility  posx  ETV
vector 10  Traci.node[1].mobility  posy  ETV
vector 11  Traci.node[1].mobility  speed  ETV
vector 12  Traci.node[1].mobility  acceleration  ETV
vector 13  Traci.node[1].mobility  co2emission  ETV
vector 16  Traci.node[2].mobility  posx  ETV
vector 17  Traci.node[2].mobility  posy  ETV
vector 18  Traci.node[2].mobility  speed  ETV
vector 19  Traci.node[2].mobility  acceleration  ETV
vector 20  Traci.node[2].mobility  co2emission  ETV
vector 23  Traci.node[3].mobility  posx  ETV
vector 24  Traci.node[3].mobility  posy  ETV
vector 25  Traci.node[3].mobility  speed  ETV
vector 26  Traci.node[3].mobility  acceleration  ETV
vector 27  Traci.node[3].mobility  co2emission  ETV
vector 30  Traci.node[4].mobility  posx  ETV
vector 31  Traci.node[4].mobility  posy  ETV
vector 32  Traci.node[4].mobility  speed  ETV
vector 33  Traci.node[4].mobility  acceleration  ETV
vector 34  Traci.node[4].mobility  co2emission  ETV
vector 37  Traci.node[5].mobility  posx  ETV
vector 38  Traci.node[5].mobility  posy  ETV
vector 39  Traci.node[5].mobility  speed  ETV
vector 40  Traci.node[5].mobility  acceleration  ETV
vector 41  Traci.node[5].mobility  co2emission  ETV
vector 44  Traci.node[6].mobility  posx  ETV
vector 45  Traci.node[6].mobility  posy  ETV
vector 46  Traci.node[6].mobility  speed  ETV
vector 47  Traci.node[6].mobility  acceleration  ETV
vector 48  Traci.node[6].mobility  co2emission  ETV
vector 51  Traci.node[7].mobility  posx  ETV
vector 52  Traci.node[7].mobility  posy  ETV
vector 53  Traci.node[7].mobility  speed  ETV
vector 54  Traci.node[7].mobility  acceleration  ETV
vector 55  Traci.node[7].mobility  co2emission  ETV
vector 58  Traci.node[8].mobility  posx  ETV
vector 59  Traci.node[8].mobility  posy  ETV
vector 60  Traci.node[8].mobility  speed  ETV
vector 61  Traci.node[8].mobility  acceleration  ETV
vector 62  Traci.node[8].mobility  co2emission  ETV
vector 65  Traci.node[9].mobility  posx  ETV
vector 66  Traci.node[9].mobility  posy  ETV
vector 67  Traci.node[9].mobility  speed  ETV
vector 68  Traci.node[9].mobility  acceleration  ETV
vector 69  Traci.node[9].mobility  co2emission  ETV
vector 72  Traci.node[10].mobility  posx  ETV
vector 73  Traci.node[10].mobility  posy  ETV
vector 74  Traci.node[10].mobility  speed  ETV
vector 75  Traci.node[10].mobility  acceleration  ETV
vector 76  Traci.node[10].mobility  co2emission  ETV
vector 79  Traci.node[11].mobility  posx  ETV
vector 80  Traci.node[11].mobility  posy  ETV
vector 81  Traci.node[11].mobility  speed  ETV
vector 82  Traci.node[11].mobility  acceleration  ETV
vector 83  Traci.node[11].mobility  co2emission  ETV
2	2	0.1	2415.8694684898
2	3	0.2	2415.8694684898
2	4	0.3	2415.845732873
2	5	0.4	2415.7990189458
2	6	0.5	2415.7304428896
2	7	0.6	2415.6413865678
2	8	0.7	2415.5313444568
2	9	0.8	2415.4026644597
2	10	0.9	2415.253749828
2	11	1	2415.0877721626
2	12	1.1	2414.9014220152
2	13	1.2	2414.6972375255
2	14	1.3	2414.476029961
2	15	1.4	2414.2351075599
2	16	1.5	2413.9751195706
2	17	1.6	2413.6943569791
2	18	1.7	2413.400071073
2	19	1.8	2413.0820719008
2	20	1.9	2412.7514266602
2	21	2	2412.3997032359
2	22	2.1	2412.0282535021
2	23	2.2	2411.638227237
2	24	2.3	2411.2334568062
2	25	2.4	2410.8141916771
2	26	2.5	2410.3769751566
2	27	2.6	2409.9212103181
2	28	2.7	2409.4479718177
2	29	2.8	2408.9551210204
2	30	2.9	2408.449159647
2	31	3	2407.9289953412
2	32	3.1	2407.434272861
2	33	3.2	2407.0121586007
2	34	3.3	2406.5725741392
2	35	3.4	2406.114908381
2	36	3.5	2405.6465809684
2	37	3.6	2405.1670944914
2	38	3.7	2404.677287863
2	39	3.8	2404.1781529811
2	40	3.9	2403.6680508436
2	41	4	2403.143897435
2	42	4.1	2402.6086066293
2	43	4.2	2402.05613007
2	44	4.3	2401.4912319428
2	45	4.4	2400.9093771066
2	46	4.5	2400.3178839575
2	47	4.6	2399.7128908854
2	48	4.7	2399.0934189598
2	49	4.8	2398.4580972631
2	50	4.9	2397.8115806727
2	51	5	2397.1509641412
2	52	5.1	2396.4772731521
2	53	5.2	2395.7854878188
2	54	5.3	2395.0810773844
2	55	5.4	2394.3639912542
2	56	5.5	2393.6342736162
2	57	5.6	2392.8949092553
2	58	5.7	2392.1435059916
2	59	5.8	2391.3771201536
2	60	5.9	2390.5964597668
2	61	6	2389.8039048777
2	62	6.1	2388.9936340754
2	63	6.2	2388.1711868861
2	64	6.3	2387.3365986652
2	65	6.4	2386.4870154882
2	66	6.5	2385.6220471597
2	67	6.6	2384.7417815286
2	68	6.7	2383.8472556834
2	69	6.8	2382.9432219474
2	70	6.9	2382.0228299268
2	71	7	2381.0932620018
2	72	7.1	2380.1477414317
2	73	7.2	2379.1882903115
2	74	7.3	2378.213918874
2	75	7.4	2377.2442580678
2	76	7.5	2376.2696967865
2	77	7.6	2375.3025458929
2	78	7.7	2374.3342207012
2	79	7.8	2373.3640858366
2	80	7.9	2372.3891401981
2	81	8	2371.4213374149
2	82	8.1	2370.4544348472
2	83	8.2	2369.4827319705
2	84	8.3	2368.5072665688
2	85	8.4	2367.5403898078
2	86	8.5	2366.5672711462
2	87	8.6	2365.5977373691
2	88	8.7	2364.6256975201
2	89	8.8	2363.6518544486
2	90	8.9	2362.6812059031
2	91	9	2361.7100310014
2	92	9.1	2360.735065655
2	93	9.2	2359.7600014166
2	94	9.3	2358.7870875963
2	95	9.4	2357.8124680001
2	96	9.5	2356.8392878361
2	97	9.6	2355.8688211417
2	98	9.7	2354.9005685279
2	99	9.8	2353.9352859281
2	100	9.9	2352.9944496726
2	101	10	2352.07293131
2	102	10.1	2351.1782707901
2	103	10.2	2350.3037230753
2	104	10.3	2349.4546318578
2	105	10.4	2348.6310316633
2	106	10.5	2347.8314229418
2	107	10.6	2347.0551655825
2	108	10.7	2346.3014453582
2	109	10.8	2345.568633294
2	110	10.9	2344.8601098728
2	111	11	2344.1686333111
2	112	11.1	2343.4953090786
2	113	11.2	2342.8743977279
2	114	11.3	2342.3269628444
2	115	11.4	2341.7941562432
2	116	11.5	2341.2832364012
2	117	11.6	2340.7904159629
2	118	11.7	2340.3160510589
2	119	11.8	2339.8612139197
2	120	11.9	2339.4199401605
2	121	12	2338.9987688921
2	122	12.1	2338.5887046304
2	123	12.2	2338.2002702492
2	124	12.3	2337.8235441678
2	125	12.4	2337.4658223656
2	126	12.5	2337.1265240796
2	127	12.6	2336.7968310487
2	128	12.7	2336.486814718
2	129	12.8	2336.1862951246
2	130	12.9	2335.9068073167
2	131	13	2335.6419410227
2	132	13.1	2335.3872091669
2	133	13.2	2335.28760074
2	134	13.3	2335.226221386
2	135	13.4	2335.1690397948
2	136	13.5	2335.1141416504
2	137	13.6	2335.0549848219
2	138	13.7	2334.9915693094
2	139	13.8	2334.9238951129
2	140	13.9	2334.8519622324
2	141	14	2334.7757706678
2	142	14.1	2334.6953204194
2	143	14.2	2334.6106114868
2	144	14.3	2334.5216438703
2	145	14.4	2334.4284175697
2	146	14.5	2334.3309325851
2	147	14.6	2334.2291889165
2	148	14.7	2334.123186564
2	149	14.8	2334.0129255273
2	150	14.9	2333.9570209552
2	151	15	2333.9071304974
2	152	15.1	2333.8556597092
2	153	15.2	2333.8576423317
2	154	15.3	2333.9766062668
2	155	15.4	2334.0989841687
2	156	15.5	2334.3219381097
2	157	15.6	2334.6733115105
2	158	15.7	2335.0300362314
2	159	15.8	2335.5955910136
2	160	15.9	2336.1924805732
2	161	16	2336.8512210137
2	162	16.1	2337.5729052677
2	163	16.2	2338.3126202654
2	164	16.3	2339.0721041511
2	165	16.4	2339.8449677079
2	166	16.5	2340.6379680866
2	167	16.6	2341.4440828013
2	168	16.7	2342.2645564968
2	169	16.8	2343.1030513025
2	170	16.9	2343.9567970311
2	171	17	2344.8236059801
2	172	17.1	2345.686461478
2	173	17.2	2346.5422795073
2	174	17.3	2347.4101321405
2	175	17.4	2348.2933318785
2	176	17.5	2349.1919690924
2	177	17.6	2350.1059956204
2	178	17.7	2351.0317158913
2	179	17.8	2351.9728894094
2	180	17.9	2352.924430616
2	181	18	2353.8951476585
2	182	18.1	2354.8766509733
2	183	18.2	2355.8696399475
2	184	18.3	2356.8739294114
2	185	18.4	2357.8962598863
2	186	18.5	2358.9234597381
2	187	18.6	2359.9523492183
2	188	18.7	2360.9831421535
2	189	18.8	2362.304965482
2	190	18.9	2363.6787508409
2	191	19	2365.0467475977
2	192	19.1	2366.4146203648
2	193	19.2	2367.7761931708
2	194	19.3	2369.1429481107
2	195	19.4	2370.5132885039
2	196	19.5	2371.8851427087
2	197	19.6	2373.2531773276
2	198	19.7	2374.6158084407
2	199	19.8	2375.9807220998
2	200	19.9	2377.3460899339
2	201	20	2378.7218287067
2	202	20.1	2380.0946723623
2	203	20.2	2381.4713819451
2	204	20.3	2382.8420103051
2	205	20.4	2384.2149810026
2	206	20.5	2385.5813499524
2	207	20.6	2386.9545062119
2	208	20.7	2388.3359286425
2	209	20.8	2389.7179159425
2	210	20.9	2391.0818527569
2	211	21	2392.4051372673
2	212	21.1	2393.7001206791
2	213	21.2	2394.9600603655
2	214	21.3	2396.1790954948
2	215	21.4	2397.3751760101
2	216	21.5	2398.5306253856
2	217	21.6	2399.6567244459
2	218	21.7	2400.7506770924
2	219	21.8	2401.8174004949
2	220	21.9	2402.8400951844
2	221	22	2403.8314936479
2	222	22.1	2404.8017983035
2	223	22.2	2405.7327947792
2	224	22.3	2406.6351850665
2	225	22.4	2407.5132709073
2	226	22.5	2408.3627772691
2	227	22.6	2409.1849646103
2	228	22.7	2409.9689658026
2	229	22.8	2410.7245081938
2	230	22.9	2411.4598788213
2	231	23	2412.164688192
2	232	23.1	2412.8416727205
2	233	23.2	2413.4858185991
2	234	23.3	2414.1045172333
2	235	23.4	2414.7045776191
2	236	23.5	2415.2748039189
2	237	23.6	2415.8150550926
2	238	23.7	2416.3285563608
2	239	23.8	2416.8203037204
2	240	23.9	2417.2858046809
2	241	24	2417.7359899965
2	242	24.1	2418.166484877
2	243	24.2	2418.5640024213
2	244	24.3	2418.9419910016
2	245	24.4	2419.3014172609
2	246	24.5	2419.6440192652
2	247	24.6	2419.9621289757
2	248	24.7	2420.3061209759
2	249	24.8	2420.6759952661
2	250	24.9	2421.071751846
2	251	25	2421.4933907158
2	252	25.1	2421.9409118755
2	253	25.2	2422.4150503068
2	254	25.3	2422.9157244103
2	255	25.4	2423.4423527744
2	256	25.5	2423.9949353995
2	257	25.6	2424.5734722852
2	258	25.7	2425.1779634317
2	259	25.8	2425.8084088389
2	260	25.9	2426.4648085069
2	261	26	2427.1365351804
2	262	26.1	2427.8203828159
2	263	26.2	2428.4937570173
2	264	26.3	2429.1442894705
2	265	26.4	2429.7111986903
2	266	26.5	2430.2150107477
2	267	26.6	2430.4735718688
2	268	26.7	2430.6857406399
2	269	26.8	2430.8077196386
2	270	26.9	2430.9319305536
2	271	27	2431.0599322936
2	272	27.1	2431.1910603058
2	273	27.2	2431.3243091805
2	274	27.3	2431.4599487844
2	275	27.4	2431.5992797832
2	276	27.5	2431.7423148439
2	277	27.6	2431.8882320204
2	278	27.7	2432.0364091337
2	279	27.8	2432.188059675
2	280	27.9	2432.3419437904
2	281	28	2432.4994341849
2	282	28.1	2432.6593042231
2	283	28.2	2432.8223134078
2	284	28.3	2432.988516467
2	285	28.4	2433.1576567403
2	286	28.5	2433.3302476292
2	287	28.6	2433.5064121237
2	288	28.7	2433.6849148362
2	289	28.8	2433.8659129908
2	290	28.9	2434.0496936075
2	291	29	2434.2358671403
2	292	29.1	2434.4246077994
2	293	29.2	2434.6158453728
2	294	29.3	2434.8101337329
2	295	29.4	2435.008127882
2	296	29.5	2435.2098176575
2	297	29.6	2435.4139050709
2	298	29.7	2435.621459916
2	299	29.8	2435.8303947393
2	300	29.9	2436.0394292885
2	301	30	2436.2492858275
2	302	30.1	2436.4585687352
2	303	30.2	2436.6684739414
2	304	30.3	2436.8781176857
2	305	30.4	2437.0883792891
2	306	30.5	2437.2978746685
2	307	30.6	2437.5064358393
2	308	30.7	2437.7153079141
2	309	30.8	2437.8711380946
2	310	30.9	2438.0236844873
2	311	31	2438.1758071077
2	312	31.1	2438.2956002837
2	313	31.2	2438.3919745361
2	314	31.3	2438.4883913093
2	315	31.4	2438.5850272402
2	316	31.5	2438.6729953099
2	317	31.6	2438.7502213786
2	318	31.7	2438.8275402595
2	319	31.8	2438.9050370946
2	320	31.9	2438.9846816638
2	321	32	2439.0714087255
2	322	32.1	2439.1580448656
2	323	32.2	2439.2442458854
2	324	32.3	2439.3446736893
2	325	32.4	2439.4457349379
2	326	32.5	2439.5463529866
2	327	32.6	2439.647262234
2	328	32.7	2439.7486933117
2	329	32.8	2439.8501612974
2	330	32.9	2439.9512787638
2	331	33	2440.0525281781
2	332	33.1	2440.1535072965
2	333	33.2	2440.2543163574
2	334	33.3	2440.3557604648
2	335	33.4	2440.4572871765
2	336	33.5	2440.5587141383
2	337	33.6	2440.6598197418
2	338	33.7	2440.76064576
3	2	0.1	1578.0861504339
3	3	0.2	1578.0861504339
3	4	0.3	1578.0948660281
3	5	0.4	1578.1120191384
3	6	0.5	1578.1371999085
3	7	0.6	1578.1699009249
3	8	0.7	1578.2103078142
3	9	0.8	1578.2575584371
3	10	0.9	1578.3122391133
3	11	1	1578.3731852453
3	12	1.1	1578.4416120471
3	13	1.2	1578.5165875256
3	14	1.3	1578.5978137888
3	15	1.4	1578.6862792373
3	16	1.5	1578.7817454701
3	17	1.6	1578.8848400284
3	18	1.7	1578.9929002775
3	19	1.8	1579.109667914
3	20	1.9	1579.2310791202
3	21	2	1579.3602301264
3	22	2.1	1579.4966245294
3	23	2.2	1579.6398401391
3	24	2.3	1579.7884697281
3	25	2.4	1579.9424216952
3	26	2.5	1580.1029653195
3	27	2.6	1580.2703197896
3	28	2.7	1580.4440904977
3	29	2.8	1580.6250627376
3	30	2.9	1580.8108491134
3	31	3	1581.0018507317
3	32	3.1	1581.2776015159
3	33	3.2	1581.7051451085
3	34	3.3	1582.1503836084
3	35	3.4	1582.6139359707
3	36	3.5	1583.0882871207
3	37	3.6	1583.5739408657
3	38	3.7	1584.0700475015
3	39	3.8	1584.5756023731
3	40	3.9	1585.092265564
3	41	4	1585.6231607571
3	42	4.1	1586.1653365986
3	43	4.2	1586.7249192409
3	44	4.3	1587.2970832204
3	45	4.4	1587.8864220101
3	46	4.5	1588.4855230832
3	47	4.6	1589.098297718
3	48	4.7	1589.7257374367
3	49	4.8	1590.3692307901
3	50	4.9	1591.0240630284
3	51	5	1591.6931765648
3	52	5.1	1592.3755327258
3	53	5.2	1593.0762159638
3	54	5.3	1593.789686691
3	55	5.4	1594.5159961507
3	56	5.5	1595.2550995881
3	57	5.6	1596.0039738277
3	58	5.7	1596.765041816
3	59	5.8	1597.5412850883
3	60	5.9	1598.3319865121
3	61	6	1599.1347354287
3	62	6.1	1599.9554281235
3	63	6.2	1600.788453822
3	64	6.3	1601.6337767122
3	65	6.4	1602.4942874275
3	66	6.5	1603.3703811811
3	67	6.6	1604.2619689954
3	68	6.7	1605.168000442
3	69	6.8	1606.0836620722
3	70	6.9	1607.0158923911
3	71	7	1607.9574166369
3	72	7.1	1608.9150987137
3	73	7.2	1609.8868905203
3	74	7.3	1610.873794551
3	75	7.4	1611.8559273621
3	76	7.5	1612.8430236792
3	77	7.6	1613.8226142945
3	78	7.7	1614.803394312
3	79	7.8	1615.7860072795
3	80	7.9	1616.7734928969
3	81	8	1617.7537437873
3	82	8.1	1618.7330828821
3	83	8.2	1619.7172840293
3	84	8.3	1620.7052960955
3	85	8.4	1621.6846090527
3	86	8.5	1622.6702441946
3	87	8.6	1623.6522483425
3	88	8.7	1624.6367907962
3	89	8.8	1625.6231596656
3	90	8.9	1626.6062929211
3	91	9	1627.589959302
3	92	9.1	1628.5774648814
3	93	9.2	1629.5650706254
3	94	9.3	1630.5504982909
3	95	9.4	1631.5376536734
3	96	9.5	1632.5233511087
3	97	9.6	1633.5063001737
3	98	9.7	1634.4870066792
3	99	9.8	1635.4647049708
3	100	9.9	1636.4176424826
3	101	10	1637.3510136306
3	102	10.1	1638.2571814843
3	103	10.2	1639.1429778365
3	104	10.3	1640.0029902644
3	105	10.4	1640.8371837987
3	106	10.5	1641.6470772745
3	107	10.6	1642.4333190387
3	108	10.7	1643.1967337886
3	109	10.8	1643.9389714543
3	110	10.9	1644.6566080693
3	111	11	1645.3569785655
3	112	11.1	1646.0389632517
3	113	11.2	1646.71479824
3	114	11.3	1647.4156000949
3	115	11.4	1648.0976754716
3	116	11.5	1648.7517323894
3	117	11.6	1649.3826192543
3	118	11.7	1649.9898801623
3	119	11.8	1650.572142492
3	120	11.9	1651.1370415846
3	121	12	1651.6762063606
3	122	12.1	1652.2011524383
3	123	12.2	1652.6984089036
3	124	12.3	1653.1806769222
3	125	12.4	1653.6386165051
3	126	12.5	1654.0729711205
3	127	12.6	1654.4950295137
3	128	12.7	1654.8918986684
3	129	12.8	1655.2766105216
3	130	12.9	1655.6343984157
3	131	13	1655.9734684965
3	132	13.1	1656.2995649194
3	133	13.2	1656.6755686784
3	134	13.3	1657.0452189669
3	135	13.4	1657.3895886987
3	136	13.5	1657.7202066286
3	137	13.6	1658.0764720067
3	138	13.7	1658.4583848314
3	139	13.8	1658.8659451045
3	140	13.9	1659.299152825
3	141	14	1659.758007993
3	142	14.1	1660.2425106093
3	143	14.2	1660.7526606731
3	144	14.3	1661.2884581853
3	145	14.4	1661.8499031449
3	146	14.5	1662.4369955519
3	147	14.6	1663.0497354064
3	148	14.7	1663.6881227093
3	149	14.8	1664.3521574596
3	150	14.9	1665.0388698038
3	151	15	1665.745651288
3	152	15.1	1666.4748207871
3	153	15.2	1667.2187599335
3	154	15.3	1667.9733311776
3	155	15.4	1668.7495567277
3	156	15.5	1669.5114731248
3	157	15.6	1670.2517895726
3	158	15.7	1671.0065984027
3	159	15.8	1671.6467903228
3	160	15.9	1672.289594464
3	161	16	1672.9017076921
3	162	16.1	1673.4845111268
3	163	16.2	1674.0818754723
3	164	16.3	1674.6952043837
3	165	16.4	1675.3193381839
3	166	16.5	1675.959733678
3	167	16.6	1676.6107197879
3	168	16.7	1677.2733016387
3	169	16.8	1677.9504366191
3	170	16.9	1678.6398876365
3	171	17	1679.3398879906
3	172	17.1	1680.0806666445
3	173	17.2	1680.8524647793
3	174	17.3	1681.6351160211
3	175	17.4	1682.4316076664
3	176	17.5	1683.2420212142
3	177	17.6	1684.0663132314
3	178	17.7	1684.9011509577
3	179	17.8	1685.7499248106
3	180	17.9	1686.6080485042
3	181	18	1687.4834654471
3	182	18.1	1688.3686097199
3	183	18.2	1689.2641120488
3	184	18.3	1690.169805442
3	185	18.4	1691.0917686708
3	186	18.5	1692.0181232253
3	187	18.6	1692.9460015297
3	188	18.7	1693.8755964171
3	189	18.8	1694.1686095996
3	190	18.9	1694.373947124
3	191	19	1694.5784194348
3	192	19.1	1694.7828732133
3	193	19.2	1694.9863853455
3	194	19.3	1695.1906720437
3	195	19.4	1695.3954946548
3	196	19.5	1695.6005435316
3	197	19.6	1695.8050215021
3	198	19.7	1696.0086918185
3	199	19.8	1696.2127033034
3	200	19.9	1696.4092901936
3	201	20	1696.5730338097
3	202	20.1	1696.736432842
3	203	20.2	1696.9002920063
3	204	20.3	1697.0634273691
3	205	20.4	1697.2268415224
3	206	20.5	1697.3894699197
3	207	20.6	1697.5420310311
3	208	20.7	1697.6726537468
3	209	20.8	1697.8033298748
3	210	20.9	1697.9322992088
3	211	21	1698.0574245956
3	212	21.1	1698.1798739247
3	213	21.2	1698.299009636
3	214	21.3	1698.414277548
3	215	21.4	1698.5273749484
3	216	21.5	1698.6366304029
3	217	21.6	1698.7431105888
3	218	21.7	1698.8465511166
3	219	21.8	1698.9474169379
3	220	21.9	1699.0441195499
3	221	22	1699.1378628956
3	222	22.1	1699.2296116799
3	223	22.2	1699.3176436145
3	224	22.3	1699.4029706419
3	225	22.4	1699.4859995218
3	226	22.5	1699.5663260212
3	227	22.6	1699.6440693252
3	228	22.7	1699.7182018729
3	229	22.8	1699.7896434516
3	230	22.9	1699.8591776555
3	231	23	1699.9258220876
3	232	23.1	1699.9898354961
3	233	23.2	1700.0507437903
3	234	23.3	1700.1092458777
3	235	23.4	1700.1659855945
3	236	23.5	1700.2199042989
3	237	23.6	1700.2709886553
3	238	23.7	1700.319543629
3	239	23.8	1700.3660416258
3	240	23.9	1700.4100578502
3	241	24	1700.4526258782
3	242	24.1	1700.4933320433
3	243	24.2	1700.5309199821
3	244	24.3	1700.5666613262
3	245	24.4	1700.6006474793
3	246	24.5	1700.6330427872
3	247	24.6	1700.6631221846
3	248	24.7	1700.6956489254
3	249	24.8	1700.7306230096
3	250	24.9	1700.7680444364
3	251	25	1700.8079132074
3	252	25.1	1700.850229322
3	253	25.2	1700.8853481244
3	254	25.3	1700.914340389
3	255	25.4	1700.9448355725
3	256	25.5	1700.976833676
3	257	25.6	1701.0103346985
3	258	25.7	1701.04533864
3	259	25.8	1701.0818455005
3	260	25.9	1701.119855281
3	261	26	1701.2111944323
3	262	26.1	1701.3230185742
3	263	26.2	1701.5196805345
3	264	26.3	1701.8395256568
3	265	26.4	1702.2924429895
3	266	26.5	1702.8522341643
3	267	26.6	1703.5750187319
3	268	26.7	1704.3351915842
3	269	26.8	1705.1378754182
3	270	26.9	1705.9552463973
3	271	27	1706.7975629326
3	272	27.1	1707.6604519282
3	273	27.2	1708.5372972768
3	274	27.3	1709.4298748402
3	275	27.4	1710.3467436582
3	276	27.5	1711.2879870879
3	277	27.6	1712.2481963038
3	278	27.7	1713.2232770538
3	279	27.8	1714.2212147266
3	280	27.9	1715.2338504521
3	281	28	1716.2702173265
3	282	28.1	1717.3222434679
3	283	28.2	1718.3949267892
3	284	28.3	1719.4886274301
3	285	28.4	1720.6016564313
3	286	28.5	1721.7373922383
3	287	28.6	1722.8966441872
3	288	28.7	1724.0712827994
3	289	28.8	1725.2623426896
3	290	28.9	1726.4717125949
3	291	29	1727.6968291057
3	292	29.1	1728.9388386123
3	293	29.2	1730.1972790845
3	294	29.3	1731.4757952848
3	295	29.4	1732.7786974609
3	296	29.5	1734.1059187371
3	297	29.6	1735.4489176907
3	298	29.7	1736.8147341087
3	299	29.8	1738.1896314835
3	300	29.9	1739.5651851054
3	301	30	1740.9461478395
3	302	30.1	1742.3233357873
3	303	30.2	1743.7046187753
3	304	30.3	1745.084181211
3	305	30.4	1746.467809475
3	306	30.5	1747.8463955941
3	307	30.6	1749.2188341459
3	308	30.7	1750.5933186039
3	309	30.8	1751.974079919
3	310	30.9	1753.3619529828
3	311	31	1754.7459705481
3	312	31.1	1756.1306440849
3	313	31.2	1757.5184333203
3	314	31.3	1758.9068348538
3	315	31.4	1760.2983922586
3	316	31.5	1761.6849466823
3	317	31.6	1763.0774292331
3	318	31.7	1764.4715853017
3	319	31.8	1765.8689501118
3	320	31.9	1767.2574598966
3	321	32	1768.6540646469
3	322	32.1	1770.0492052492
3	323	32.2	1771.4373389129
3	324	32.3	1772.8319499204
3	325	32.4	1774.2217413764
3	326	32.5	1775.6054379605
3	327	32.6	1776.9931391012
3	328	32.7	1778.3880164362
3	329	32.8	1779.7834013291
3	330	32.9	1781.1739658918
3	331	33	1782.5663449988
3	332	33.1	1783.9550070018
3	333	33.2	1785.3413303811
3	334	33.3	1786.7363869008
3	335	33.4	1788.1325793928
3	336	33.5	1789.5274001276
3	337	33.6	1790.9178015515
3	338	33.7	1792.3043581257
4	3	0.2	0.25286542447004
4	4	0.3	0.49766294917859
4	5	0.4	0.73056932500431
4	6	0.5	0.94875413759194
4	7	0.6	1.1723245016953
4	8	0.7	1.3708816750736
4	9	0.8	1.5864496756212
4	10	0.9	1.7682292908497
4	11	1	1.985265837447
4	12	1.1	2.1752625241973
4	13	1.2	2.3566164375431
4	14	1.3	2.5666468154741
4	15	1.4	2.769760478177
4	16	1.5	2.9910809794938
4	17	1.6	3.1351504892655
4	18	1.7	3.3877778024212
4	19	1.8	3.5225016430937
4	20	1.9	3.7470563248065
4	21	2	3.9572089270348
4	22	2.1	4.1551124625196
4	23	2.2	4.3121882081739
4	24	2.3	4.4666062737335
4	25	2.4	4.6578499339343
4	26	2.5	4.855452901652
4	27	2.6	5.0416071083638
4	28	2.7	5.2505450852527
4	29	2.8	5.3902175229331
4	30	2.9	5.5415272829853
4	31	3	5.7922925953529
4	32	3.1	6.0084310943409
4	33	3.2	6.2571042857351
4	34	3.3	6.5144758938494
4	35	3.4	6.6662353142802
4	36	3.5	6.8250749358846
4	37	3.6	6.9719733570013
4	38	3.7	7.1047529724249
4	39	3.8	7.260862359126
4	40	3.9	7.4608700419622
4	41	4	7.6194012491274
4	42	4.1	7.8640255740387
4	43	4.2	8.0408358418298
4	44	4.3	8.2821999147147
4	45	4.4	8.4193929552947
4	46	4.5	8.6115526726315
4	47	4.6	8.8176466202861
4	48	4.7	9.0432543908022
4	49	4.8	9.2026040115565
4	50	4.9	9.403304467882
4	51	5	9.5894080545995
4	52	5.1	9.8469653808567
4	53	5.2	10.026672765746
4	54	5.3	10.207100321826
4	55	5.4	10.386898902001
4	56	5.5	10.524211652215
4	57	5.6	10.695575013495
4	58	5.7	10.908838986227
4	59	5.8	11.11202483238
4	60	5.9	11.281332776976
4	61	6	11.533503466331
4	62	6.1	11.706823793865
4	63	6.2	11.879640870284
4	64	6.3	12.093081088158
4	65	6.4	12.312075402703
4	66	6.5	12.529819263121
4	67	6.6	12.732801066379
4	68	6.7	12.868137661375
4	69	6.8	13.10098368276
4	70	6.9	13.231594739231
4	71	7	13.45866683106
4	72	7.1	13.656956155394
4	73	7.2	13.869333953757
4	74	7.3	13.802282198106
4	75	7.4	13.872036216564
4	76	7.5	13.766555763318
4	77	7.6	13.783270879982
4	78	7.7	13.809030007876
4	79	7.8	13.877507207855
4	80	7.9	13.775834849088
4	81	8	13.763021058196
4	82	8.1	13.831349302193
4	83	8.2	13.884905587435
4	84	8.3	13.762653725038
4	85	8.4	13.851501774092
4	86	8.5	13.800474045787
4	87	8.6	13.836145811512
4	88	8.7	13.861813122688
4	89	8.8	13.8163418117
4	90	8.9	13.823834035075
4	91	9	13.877787734221
4	92	9.1	13.879195376737
4	93	9.2	13.848586035857
4	94	9.3	13.872866277939
4	95	9.4	13.852377208173
4	96	9.5	13.813753318707
4	97	9.6	13.782237796318
4	98	9.7	13.739962217953
4	99	9.8	13.391989667279
4	100	9.9	13.117016186788
4	101	10	12.734718043693
4	102	10.1	12.448429675361
4	103	10.2	12.086078471637
4	104	10.3	11.723235825628
4	105	10.4	11.381737974932
4	106	10.5	11.049351546795
4	107	10.6	10.728554941099
4	108	10.7	10.430945379941
4	109	10.8	10.085217572998
4	110	10.9	9.8425702849099
4	111	11	9.5841875897834
4	112	11.1	9.1912911008952
4	113	11.2	8.8932135324474
4	114	11.3	8.6555735081313
4	115	11.4	8.300017754164
4	116	11.5	8.005988515444
4	117	11.6	7.7061738468151
4	118	11.7	7.3889405353558
4	119	11.8	7.1686001123867
4	120	11.9	6.8420302306496
4	121	12	6.66159419426
4	122	12.1	6.3102114957186
4	123	12.2	6.1200073013469
4	124	12.3	5.8112781405949
4	125	12.4	5.5119836159397
4	126	12.5	5.3559438978679
4	127	12.6	5.0362910903288
4	128	12.7	4.882014272374
4	129	12.8	4.5403477745676
4	130	12.9	4.3028177064986
4	131	13	4.1381812796644
4	132	13.1	3.9659896133433
4	133	13.2	3.7473153638001
4	134	13.3	3.4910347120336
4	135	13.4	3.3516263523396
4	136	13.5	3.6116263523396
4	137	13.6	3.8716263523396
4	138	13.7	4.1316263523396
4	139	13.8	4.3916263523396
4	140	13.9	4.6516263523396
4	141	14	4.9116263523396
4	142	14.1	5.1716263523396
4	143	14.2	5.4316263523396
4	144	14.3	5.6916263523396
4	145	14.4	5.9516263523396
4	146	14.5	6.2116263523396
4	147	14.6	6.4716263523396
4	148	14.7	6.7316263523396
4	149	14.8	6.8930371275894
4	150	14.9	7.0854746725993
4	151	15	7.3099142082735
4	152	15.1	7.481529879137
4	153	15.2	7.6389937543544
4	154	15.3	7.8582137426874
4	155	15.4	8.0257078458835
4	156	15.5	8.2016934693303
4	157	15.6	8.3567080348824
4	158	15.7	8.5807118471014
4	159	15.8	8.7805023215595
4	160	15.9	9.0190576682729
4	161	16	9.2750987827243
4	162	16.1	9.5068302184507
4	163	16.2	9.7609003157658
4	164	16.3	9.9328560858965
4	165	16.4	10.19165487678
4	166	16.5	10.360200554684
4	167	16.6	10.544742427706
4	168	16.7	10.776350057451
4	169	16.8	10.972355186271
4	170	16.9	11.140243926919
4	171	17	11.374979438384
4	172	17.1	11.522879166896
4	173	17.2	11.684915118299
4	174	17.3	11.891551139904
4	175	17.4	12.099403935513
4	176	17.5	12.306608272139
4	177	17.6	12.46405481152
4	178	17.7	12.672119952319
4	179	17.8	12.811712271071
4	180	17.9	13.069898979308
4	181	18	13.215127179518
4	182	18.1	13.369772047165
4	183	18.2	13.521923755677
4	184	18.3	13.764830992222
4	185	18.4	13.830393108015
4	186	18.5	13.853142549698
4	187	18.6	13.878770992516
4	188	18.7	13.788937017468
4	189	18.8	13.888740537425
4	190	18.9	13.830218735766
4	191	19	13.828965220305
4	192	19.1	13.765273665285
4	193	19.2	13.817664174566
4	194	19.3	13.853912507726
4	195	19.4	13.869216891332
4	196	19.5	13.83060151516
4	197	19.6	13.775972974126
4	198	19.7	13.799049132722
4	199	19.8	13.794918345578
4	200	19.9	13.859727488295
4	201	20	13.830560950977
4	202	20.1	13.869507804762
4	203	20.2	13.80824320287
4	204	20.3	13.831840821074
4	205	20.4	13.765332246213
4	206	20.5	13.820859606343
4	207	20.6	13.877050059601
4	208	20.7	13.882724442056
4	209	20.8	13.7013986669
4	210	20.9	13.293026799731
4	211	21	13.008728708077
4	212	21.1	12.656697699089
4	213	21.2	12.245791827674
4	214	21.3	12.01520173481
4	215	21.4	11.607042471678
4	216	21.5	11.312204496202
4	217	21.6	10.989278369913
4	218	21.7	10.715747571817
4	219	21.8	10.273458057648
4	220	21.9	9.9590724749589
4	221	22	9.7471750712207
4	222	22.1	9.3523055746301
4	223	22.2	9.064942706812
4	224	22.3	8.8207929005952
4	225	22.4	8.5336983433123
4	226	22.5	8.2592656945031
4	227	22.6	7.8756675375752
4	228	22.7	7.5897852468095
4	229	22.8	7.3871502175852
4	230	22.9	7.0801477541664
4	231	23	6.8006338845708
4	232	23.1	6.4707539165056
4	233	23.2	6.215124156094
4	234	23.3	6.0278940213228
4	235	23.4	5.7281963370645
4	236	23.5	5.4270818363068
4	237	23.6	5.1583662217623
4	238	23.7	4.9398377901418
4	239	23.8	4.6761801363604
4	240	23.9	4.5223271478286
4	241	24	4.324527294199
4	242	24.1	3.9932541562694
4	243	24.2	3.7970763563066
4	244	24.3	3.6106089511367
4	245	24.4	3.4416012499646
4	246	24.5	3.1955644251511
4	247	24.6	3.4555644251511
4	248	24.7	3.7155644251511
4	249	24.8	3.9755644251511
4	250	24.9	4.2355644251511
4	251	25	4.4955644251511
4	252	25.1	4.7555644251511
4	253	25.2	5.0155644251511
4	254	25.3	5.2755644251511
4	255	25.4	5.5355644251511
4	256	25.5	5.7955644251511
4	257	25.6	6.0555644251511
4	258	25.7	6.3155644251511
4	259	25.8	6.5755644251511
4	260	25.9	6.7898183353536
4	261	26	6.9341451602464
4	262	26.1	7.0946599837171
4	263	26.2	7.2541591217124
4	264	26.3	7.3924182692042
4	265	26.4	7.5364841439726
4	266	26.5	7.7111050900642
4	267	26.6	7.9213878771907
4	268	26.7	8.1198731705861
4	269	26.8	8.2684469312278
4	270	26.9	8.520793794262
4	271	27	8.7289028452791
4	272	27.1	8.8700839872763
4	273	27.2	9.0292295690405
4	274	27.3	9.2749575891287
4	275	27.4	9.5215288289625
4	276	27.5	9.7133849277918
4	277	27.6	9.8638239357655
4	278	27.7	10.095042397665
4	279	27.8	10.243726493855
4	280	27.9	10.483788539328
4	281	28	10.642196191252
4	282	28.1	10.851162249566
4	283	28.2	11.06377144772
4	284	28.3	11.259295309122
4	285	28.4	11.488995191049
4	286	28.5	11.726882237784
4	287	28.6	11.882532259888
4	288	28.7	12.048648337427
4	289	28.8	12.233870716718
4	290	28.9	12.393161864994
4	291	29	12.564049805269
4	292	29.1	12.730263891175
4	293	29.2	12.933348038296
4	294	29.3	13.180034250339
4	295	29.4	13.426043948581
4	296	29.5	13.585649423542
4	297	29.6	13.816468721746
4	298	29.7	13.908330820047
4	299	29.8	13.914969349441
4	300	29.9	13.96968741176
4	301	30	13.931502032038
4	302	30.1	13.972927076714
4	303	30.2	13.955522123615
4	304	30.3	13.996651660271
4	305	30.4	13.945645802794
4	306	30.5	13.883457600772
4	307	30.6	13.904153784907
4	308	30.7	13.890169034177
4	309	30.8	13.955847963695
4	310	30.9	13.917078752161
4	311	31	13.894752860635
4	312	31.1	13.904873255545
4	313	31.2	13.911008144245
4	314	31.3	13.942628208799
4	315	31.4	13.887317490219
4	316	31.5	13.9397652773
4	317	31.6	13.956518414002
4	318	31.7	13.988640249688
4	319	31.8	13.901542661723
4	320	31.9	13.986469760789
4	321	32	13.971806867023
4	322	32.1	13.901635016848
4	323	32.2	13.981750086262
4	324	32.3	13.934512784167
4	325	32.4	13.873403569597
4	326	32.5	13.913554589106
4	327	32.6	13.985505512422
4	328	32.7	13.990594451961
4	329	32.8	13.942264216742
4	330	32.9	13.960457437609
4	331	33	13.923188518677
4	332	33.1	13.899740689823
4	333	33.2	13.987302071862
4	334	33.3	13.998691719738
4	335	33.4	13.984938010459
4	336	33.5	13.940628528427
4	337	33.6	13.902078784353
4	338	33.7	13.889715115456
5	4	0.3	2.4479752470855
5	5	0.4	2.3290637582572
5	6	0.5	2.1818481258762
5	7	0.6	2.2357036410334
5	8	0.7	1.9855717337837
5	9	0.8	2.1556800054752
5	10	0.9	1.8177961522857
5	11	1	2.1703654659723
5	12	1.1	1.8999668675033
5	13	1.2	1.8135391334582
5	14	1.3	2.1003037793096
5	15	1.4	2.0311366270296
5	16	1.5	2.213205013168
5	17	1.6	1.4406950977165
5	18	1.7	2.5262731315568