version 2
run nodebug-0-20140310-21:05:58-5740
attr configname nodebug
attr datetime 20140310-21:05:58
attr experiment nodebug
attr inifile omnetpp.ini
attr iterationvars ""
attr iterationvars2 $repetition=0
attr measurement ""
attr network Traci
attr processid 5740
attr repetition 0
attr replication #0
attr resultdir results
attr runnumber 0
attr seedset 0

vector 2  Traci.node[0].mobility  posx  ETV
vector 3  Traci.node[0].mobility  posy  ETV
vector 4  Traci.node[0].mobility  speed  ETV
vector 5  Traci.node[0].mobility  acceleration  ETV
vector 6  Traci.node[0].mobility  co2emission  ETV
vector 9  Traci.node[1].mobility  posx  ETV
vector 10  Traci.node[1].mobility  posy  ETV
vector 11  Traci.node[1].mobility  speed  ETV
vector 12  Traci.node[1].mobility  acceleration  ETV
vector 13  Traci.node[1].mobility  co2emission  ETV
vector 16  Traci.node[2].mobility  posx  ETV
vector 17  Traci.node[2].mobility  posy  ETV
vector 18  Traci.node[2].mobility  speed  ETV
vector 19  Traci.node[2].mobility  acceleration  ETV
vector 20  Traci.node[2].mobility  co2emission  ETV
vector 23  Traci.node[3].mobility  posx  ETV
vector 24  Traci.node[3].mobility  posy  ETV
vector 25  Traci.node[3].mobility  speed  ETV
vector 26  Traci.node[3].mobility  acceleration  ETV
vector 27  Traci.node[3].mobility  co2emission  ETV
vector 30  Traci.node[4].mobility  posx  ETV
vector 31  Traci.node[4].mobility  posy  ETV
vector 32  Traci.node[4].mobility  speed  ETV
vector 33  Traci.node[4].mobility  acceleration  ETV
vector 34  Traci.node[4].mobility  co2emission  ETV
vector 37  Traci.node[5].mobility  posx  ETV
vector 38  Traci.node[5].mobility  posy  ETV
vector 39  Traci.node[5].mobility  speed  ETV
vector 40  Traci.node[5].mobility  acceleration  ETV
vector 41  Traci.node[5].mobility  co2emission  ETV
vector 44  Traci.node[6].mobility  posx  ETV
vector 45  Traci.node[6].mobility  posy  ETV
vector 46  Traci.node[6].mobility  speed  ETV
vector 47  Traci.node[6].mobility  acceleration  ETV
vector 48  Traci.node[6].mobility  co2emission  ETV
vector 51  Traci.node[7].mobility  posx  ETV
vector 52  Traci.node[7].mobility  posy  ETV
vector 53  Traci.node[7].mobility  speed  ETV
vector 54  Traci.node[7].mobility  acceleration  ETV
vector 55  Traci.node[7].mobility  co2emission  ETV
vector 58  Traci.node[8].mobility  posx  ETV
vector 59  Traci.node[8].mobility  posy  ETV
vector 60  Traci.node[8].mobility  speed  ETV
vector 61  Traci.node[8].mobility  acceleration  ETV
vector 62  Traci.node[8].mobility  co2emission  ETV
vector 65  Traci.node[9].mobility  posx  ETV
vector 66  Traci.node[9].mobility  posy  ETV
vector 67  Traci.node[9].mobility  speed  ETV
vector 68  Traci.node[9].mobility  acceleration  ETV
vector 69  Traci.node[9].mobility  co2emission  ETV
vector 72  Traci.node[10].mobility  posx  ETV
vector 73  Traci.node[10].mobility  posy  ETV
vector 74  Traci.node[10].mobility  speed  ETV
vector 75  Traci.node[10].mobility  acceleration  ETV
vector 76  Traci.node[10].mobility  co2emission  ETV
vector 79  Traci.node[11].mobility  posx  ETV
vector 80  Traci.node[11].mobility  posy  ETV
vector 81  Traci.node[11].mobility  speed  ETV
vector 82  Traci.node[11].mobility  acceleration  ETV
vector 83  Traci.node[11].mobility  co2emission  ETV
vector 86  Traci.node[12].mobility  posx  ETV
vector 87  Traci.node[12].mobility  posy  ETV
vector 88  Traci.node[12].mobility  speed  ETV
vector 89  Traci.node[12].mobility  acceleration  ETV
vector 90  Traci.node[12].mobility  co2emission  ETV
vector 93  Traci.node[13].mobility  posx  ETV
vector 94  Traci.node[13].mobility  posy  ETV
vector 95  Traci.node[13].mobility  speed  ETV
vector 96  Traci.node[13].mobility  acceleration  ETV
vector 97  Traci.node[13].mobility  co2emission  ETV
vector 100  Traci.node[14].mobility  posx  ETV
vector 101  Traci.node[14].mobility  posy  ETV
vector 102  Traci.node[14].mobility  speed  ETV
vector 103  Traci.node[14].mobility  acceleration  ETV
vector 104  Traci.node[14].mobility  co2emission  ETV
vector 107  Traci.node[15].mobility  posx  ETV
vector 108  Traci.node[15].mobility  posy  ETV
vector 109  Traci.node[15].mobility  speed  ETV
vector 110  Traci.node[15].mobility  acceleration  ETV
vector 111  Traci.node[15].mobility  co2emission  ETV
vector 114  Traci.node[16].mobility  posx  ETV
vector 115  Traci.node[16].mobility  posy  ETV
vector 116  Traci.node[16].mobility  speed  ETV
vector 117  Traci.node[16].mobility  acceleration  ETV
vector 118  Traci.node[16].mobility  co2emission  ETV
vector 121  Traci.node[17].mobility  posx  ETV
vector 122  Traci.node[17].mobility  posy  ETV
vector 123  Traci.node[17].mobility  speed  ETV
vector 124  Traci.node[17].mobility  acceleration  ETV
vector 125  Traci.node[17].mobility  co2emission  ETV
vector 128  Traci.node[18].mobility  posx  ETV
vector 129  Traci.node[18].mobility  posy  ETV
vector 130  Traci.node[18].mobility  speed  ETV
vector 131  Traci.node[18].mobility  acceleration  ETV
vector 132  Traci.node[18].mobility  co2emission  ETV
2	2	0.1	2415.8694684898
2	3	0.2	2415.8694684898
2	4	0.3	2415.845732873
2	5	0.4	2415.7990189458
2	6	0.5	2415.7304428896
2	7	0.6	2415.6413865678
2	8	0.7	2415.5313444568
2	9	0.8	2415.4026644597
2	10	0.9	2415.253749828
2	11	1	2415.0877721626
2	12	1.1	2414.9014220152
2	13	1.2	2414.6972375255
2	14	1.3	2414.476029961
2	15	1.4	2414.2351075599
2	16	1.5	2413.9751195706
2	17	1.6	2413.6943569791
2	18	1.7	2413.400071073
2	19	1.8	2413.0820719008
2	20	1.9	2412.7514266602
2	21	2	2412.3997032359
2	22	2.1	2412.0282535021
2	23	2.2	2411.638227237
2	24	2.3	2411.2334568062
2	25	2.4	2410.8141916771
2	26	2.5	2410.3769751566
2	27	2.6	2409.9212103181
2	28	2.7	2409.4479718177
2	29	2.8	2408.9551210204
2	30	2.9	2408.449159647
2	31	3	2407.9289953412
2	32	3.1	2407.434272861
2	33	3.2	2407.0121586007
2	34	3.3	2406.5725741392
2	35	3.4	2406.114908381
2	36	3.5	2405.6465809684
2	37	3.6	2405.1670944914
2	38	3.7	2404.677287863
2	39	3.8	2404.1781529811
2	40	3.9	2403.6680508436
2	41	4	2403.143897435
2	42	4.1	2402.6086066293
2	43	4.2	2402.05613007
2	44	4.3	2401.4912319428
2	45	4.4	2400.9093771066
2	46	4.5	2400.3178839575
2	47	4.6	2399.7128908854
2	48	4.7	2399.0934189598
2	49	4.8	2398.4580972631
2	50	4.9	2397.8115806727
2	51	5	2397.1509641412
2	52	5.1	2396.4772731521
2	53	5.2	2395.7854878188
2	54	5.3	2395.0810773844
2	55	5.4	2394.3639912542
2	56	5.5	2393.6342736162
2	57	5.6	2392.8949092553
2	58	5.7	2392.1435059916
2	59	5.8	2391.3771201536
2	60	5.9	2390.5964597668
2	61	6	2389.8039048777
2	62	6.1	2388.9936340754
2	63	6.2	2388.1711868861
2	64	6.3	2387.3365986652
2	65	6.4	2386.4870154882
2	66	6.5	2385.6220471597
2	67	6.6	2384.7417815286
2	68	6.7	2383.8472556834
2	69	6.8	2382.9432219474
2	70	6.9	2382.0228299268
2	71	7	2381.0932620018
2	72	7.1	2380.1477414317
2	73	7.2	2379.1882903115
2	74	7.3	2378.213918874
2	75	7.4	2377.2442580678
2	76	7.5	2376.2696967865
2	77	7.6	2375.3025458929
2	78	7.7	2374.3342207012
2	79	7.8	2373.3640858366
2	80	7.9	2372.3891401981
2	81	8	2371.4213374149
2	82	8.1	2370.4544348472
2	83	8.2	2369.4827319705
2	84	8.3	2368.5072665688
2	85	8.4	2367.5403898078
2	86	8.5	2366.5672711462
2	87	8.6	2365.5977373691
2	88	8.7	2364.6256975201
2	89	8.8	2363.6518544486
2	90	8.9	2362.6812059031
2	91	9	2361.7100310014
2	92	9.1	2360.735065655
2	93	9.2	2359.7600014166
2	94	9.3	2358.7870875963
2	95	9.4	2357.8124680001
2	96	9.5	2356.8392878361
2	97	9.6	2355.8688211417
2	98	9.7	2354.9005685279
2	99	9.8	2353.9352859281
2	100	9.9	2352.9944496726
2	101	10	2352.07293131
2	102	10.1	2351.1782707901
2	103	10.2	2350.3037230753
2	104	10.3	2349.4546318578
2	105	10.4	2348.6310316633
2	106	10.5	2347.8314229418
2	107	10.6	2347.0551655825
2	108	10.7	2346.3014453582
2	109	10.8	2345.568633294
2	110	10.9	2344.8601098728
2	111	11	2344.1686333111
2	112	11.1	2343.4953090786
2	113	11.2	2342.8743977279
2	114	11.3	2342.3269628444
2	115	11.4	2341.7941562432
2	116	11.5	2341.2832364012
2	117	11.6	2340.7904159629
2	118	11.7	2340.3160510589
2	119	11.8	2339.8612139197
2	120	11.9	2339.4199401605
2	121	12	2338.9987688921
2	122	12.1	2338.5887046304
2	123	12.2	2338.2002702492
2	124	12.3	2337.8235441678
2	125	12.4	2337.4658223656
2	126	12.5	2337.1265240796
2	127	12.6	2336.7968310487
2	128	12.7	2336.486814718
2	129	12.8	2336.1862951246
2	130	12.9	2335.9068073167
2	131	13	2335.6419410227
2	132	13.1	2335.3872091669
2	133	13.2	2335.28760074
2	134	13.3	2335.226221386
2	135	13.4	2335.1690397948
2	136	13.5	2335.1141416504
2	137	13.6	2335.0549848219
2	138	13.7	2334.9915693094
2	139	13.8	2334.9238951129
2	140	13.9	2334.8519622324
2	141	14	2334.7757706678
2	142	14.1	2334.6953204194
2	143	14.2	2334.6106114868
2	144	14.3	2334.5216438703
2	145	14.4	2334.4284175697
2	146	14.5	2334.3309325851
2	147	14.6	2334.2291889165
2	148	14.7	2334.123186564
2	149	14.8	2334.0129255273
2	150	14.9	2333.9570209552
2	151	15	2333.9071304974
2	152	15.1	2333.8556597092
2	153	15.2	2333.8576423317
2	154	15.3	2333.9766062668
2	155	15.4	2334.0989841687
2	156	15.5	2334.3219381097
2	157	15.6	2334.6733115105
2	158	15.7	2335.0300362314
2	159	15.8	2335.5955910136
2	160	15.9	2336.1924805732
2	161	16	2336.8512210137
2	162	16.1	2337.5729052677
2	163	16.2	2338.3126202654
2	164	16.3	2339.0721041511
2	165	16.4	2339.8449677079
2	166	16.5	2340.6379680866
2	167	16.6	2341.4440828013
2	168	16.7	2342.2645564968
2	169	16.8	2343.1030513025
2	170	16.9	2343.9567970311
2	171	17	2344.8236059801
2	172	17.1	2345.686461478
2	173	17.2	2346.5422795073
2	174	17.3	2347.4101321405
2	175	17.4	2348.2933318785
2	176	17.5	2349.1919690924
2	177	17.6	2350.1059956204
2	178	17.7	2351.0317158913
2	179	17.8	2351.9728894094
2	180	17.9	2352.924430616
2	181	18	2353.8951476585
2	182	18.1	2354.8766509733
2	183	18.2	2355.8696399475
2	184	18.3	2356.8739294114
2	185	18.4	2357.8962598863
2	186	18.5	2358.9234597381
2	187	18.6	2359.9523492183
2	188	18.7	2360.9831421535
2	189	18.8	2362.304965482
2	190	18.9	2363.6787508409
2	191	19	2365.0467475977
2	192	19.1	2366.4146203648
2	193	19.2	2367.7761931708
2	194	19.3	2369.1429481107
2	195	19.4	2370.5132885039
2	196	19.5	2371.8851427087
2	197	19.6	2373.2531773276
2	198	19.7	2374.6158084407
2	199	19.8	2375.9807220998
2	200	19.9	2377.3460899339
2	201	20	2378.7218287067
2	202	20.1	2380.0946723623
2	203	20.2	2381.4713819451
2	204	20.3	2382.8420103051
2	205	20.4	2384.2149810026
2	206	20.5	2385.5813499524
2	207	20.6	2386.9545062119
2	208	20.7	2388.3359286425
2	209	20.8	2389.7179159425
2	210	20.9	2391.0818527569
2	211	21	2392.4051372673
2	212	21.1	2393.7001206791
2	213	21.2	2394.9600603655
2	214	21.3	2396.1790954948
2	215	21.4	2397.3751760101
2	216	21.5	2398.5306253856
2	217	21.6	2399.6567244459
2	218	21.7	2400.7506770924
2	219	21.8	2401.8174004949
2	220	21.9	2402.8400951844
2	221	22	2403.8314936479
2	222	22.1	2404.8017983035
2	223	22.2	2405.7327947792
2	224	22.3	2406.6351850665
2	225	22.4	2407.5132709073
2	226	22.5	2408.3627772691
2	227	22.6	2409.1849646103
2	228	22.7	2409.9689658026
2	229	22.8	2410.7245081938
2	230	22.9	2411.4598788213
2	231	23	2412.164688192
2	232	23.1	2412.8416727205
2	233	23.2	2413.4858185991
2	234	23.3	2414.1045172333
2	235	23.4	2414.7045776191
2	236	23.5	2415.2748039189
2	237	23.6	2415.8150550926
2	238	23.7	2416.3285563608
2	239	23.8	2416.8203037204
2	240	23.9	2417.2858046809
2	241	24	2417.7359899965
2	242	24.1	2418.166484877
2	243	24.2	2418.5640024213
2	244	24.3	2418.9419910016
2	245	24.4	2419.3014172609
2	246	24.5	2419.6440192652
2	247	24.6	2419.9621289757
2	248	24.7	2420.3061209759
2	249	24.8	2420.6759952661
2	250	24.9	2421.071751846
2	251	25	2421.4933907158
2	252	25.1	2421.9409118755
2	253	25.2	2422.4150503068
2	254	25.3	2422.9157244103
2	255	25.4	2423.4423527744
2	256	25.5	2423.9949353995
2	257	25.6	2424.5734722852
2	258	25.7	2425.1779634317
2	259	25.8	2425.8084088389
2	260	25.9	2426.4648085069
2	261	26	2427.1365351804
2	262	26.1	2427.8203828159
2	263	26.2	2428.4937570173
2	264	26.3	2429.1442894705
2	265	26.4	2429.7111986903
2	266	26.5	2430.2150107477
2	267	26.6	2430.4735718688
2	268	26.7	2430.6857406399
2	269	26.8	2430.8077196386
2	270	26.9	2430.9319305536
2	271	27	2431.0599322936
2	272	27.1	2431.1910603058
2	273	27.2	2431.3243091805
2	274	27.3	2431.4599487844
2	275	27.4	2431.5992797832
2	276	27.5	2431.7423148439
2	277	27.6	2431.8882320204
2	278	27.7	2432.0364091337
2	279	27.8	2432.188059675
2	280	27.9	2432.3419437904
2	281	28	2432.4994341849
2	282	28.1	2432.6593042231
2	283	28.2	2432.8223134078
2	284	28.3	2432.988516467
2	285	28.4	2433.1576567403
2	286	28.5	2433.3302476292
2	287	28.6	2433.5064121237
2	288	28.7	2433.6849148362
2	289	28.8	2433.8659129908
2	290	28.9	2434.0496936075
2	291	29	2434.2358671403
2	292	29.1	2434.4246077994
2	293	29.2	2434.6158453728
2	294	29.3	2434.8101337329
2	295	29.4	2435.008127882
2	296	29.5	2435.2098176575
2	297	29.6	2435.4139050709
2	298	29.7	2435.621459916
2	299	29.8	2435.8303947393
2	300	29.9	2436.0394292885
2	301	30	2436.2492858275
2	302	30.1	2436.4585687352
2	303	30.2	2436.6684739414
2	304	30.3	2436.8781176857
2	305	30.4	2437.0883792891
2	306	30.5	2437.2978746685
2	307	30.6	2437.5064358393
2	308	30.7	2437.7153079141
2	309	30.8	2437.8711380946
2	310	30.9	2438.0236844873
2	311	31	2438.1758071077
2	312	31.1	2438.2956002837
2	313	31.2	2438.3919745361
2	314	31.3	2438.4883913093
2	315	31.4	2438.5850272402
2	316	31.5	2438.6729953099
2	317	31.6	2438.7502213786
2	318	31.7	2438.8275402595
2	319	31.8	2438.9050370946
2	320	31.9	2438.9846816638
2	321	32	2439.0714087255
2	322	32.1	2439.1580448656
2	323	32.2	2439.2442458854
2	324	32.3	2439.3446736893
2	325	32.4	2439.4457349379
2	326	32.5	2439.5463529866
2	327	32.6	2439.647262234
2	328	32.7	2439.7486933117
2	329	32.8	2439.8501612974
2	330	32.9	2439.9512787638
2	331	33	2440.0525281781
2	332	33.1	2440.1535072965
2	333	33.2	2440.2543163574
2	334	33.3	2440.3557604648
2	335	33.4	2440.4572871765
2	336	33.5	2440.5587141383
2	337	33.6	2440.6598197418
2	338	33.7	2440.76064576
2	339	33.8	2440.8613821097
2	340	33.9	2440.9628541092
2	341	34	2441.0641401719
2	342	34.1	2441.1649904175
2	343	34.2	2441.2662149157
2	344	34.3	2441.3673245778
2	345	34.4	2441.4686446082
2	346	34.5	2441.569327705
2	347	34.6	2441.6706886342
2	348	34.7	2441.7717339206
2	349	34.8	2441.8726877715
2	350	34.9	2441.9741105698
2	351	35	2442.0747349956
2	352	35.1	2442.1754903892
2	353	35.2	2442.2766133859
2	354	35.3	2442.3779018087
2	355	35.4	2442.4785095298
2	356	35.5	2442.5792690658
2	357	35.6	2442.6806503398
2	358	35.7	2442.7818064382
2	359	35.8	2442.883171536
2	360	35.9	2442.9843650324
2	361	36	2443.0856027777
2	362	36.1	2443.1867373274
2	363	36.2	2443.2879310669
2	364	36.3	2443.3888097989
2	365	36.4	2443.4895943193
2	366	36.5	2443.5903507458
2	367	36.6	2443.6915287683
2	368	36.7	2443.7921766427
2	369	36.8	2443.8929834092
2	370	36.9	2443.9939282995
2	371	37	2444.0949794459
2	372	37.1	2444.1958015359
2	373	37.2	2444.2966763923
2	374	37.3	2444.3979503742
2	375	37.4	2444.4985622086
2	376	37.5	2444.599197561
2	377	37.6	2444.7005966392
2	378	37.7	2444.8013205003
2	379	37.8	2444.9027644006
2	380	37.9	2445.0037831286
2	381	38	2445.1051260367
2	382	38.1	2445.205865395
2	383	38.2	2445.3065331869
2	384	38.3	2445.4071851347
2	385	38.4	2445.5081149038
2	386	38.5	2445.6089037005
2	387	38.6	2445.7096635017
2	388	38.7	2445.8104565919
2	389	38.8	2445.9114952435
2	390	38.9	2446.0126355867
2	391	39	2446.1141578509
2	392	39.1	2446.2156202778
2	393	39.2	2446.3164845757
2	394	39.3	2446.4174737068
2	395	39.4	2446.5185232868
2	396	39.5	2446.6195586571
2	397	39.6	2446.7210362781
2	398	39.7	2446.8217359156
2	399	39.8	2446.9224121069
2	400	39.9	2447.0233409102
2	401	40	2447.1242308272
2	402	40.1	2447.2250593943
2	403	40.2	2447.3263163945
2	404	40.3	2447.4273909021
2	405	40.4	2447.5282585835
2	406	40.5	2447.6295387555
2	407	40.6	2447.7310665607
2	408	40.7	2447.8318966021
2	409	40.8	2447.9329857236
2	410	40.9	2448.034486054
2	411	41	2448.1356886608
2	412	41.1	2448.2370423059
2	413	41.2	2448.3381127967
2	414	41.3	2448.4396060876
2	415	41.4	2448.5403975704
2	416	41.5	2448.6412072737
2	417	41.6	2448.7426614893
2	418	41.7	2448.843316344
2	419	41.8	2448.9444217953
2	420	41.9	2449.0456355613
2	421	42	2449.1463045994
2	422	42.1	2449.2475201403
2	423	42.2	2449.3487568656
2	424	42.3	2449.4495681007
2	425	42.4	2449.5510719927
2	426	42.5	2449.6520212156
2	427	42.6	2449.7532695991
2	428	42.7	2449.8541604293
2	429	42.8	2449.9556919821
2	430	42.9	2450.056388953
2	431	43	2450.1577200823
2	432	43.1	2450.2590815629
2	433	43.2	2450.3598487756
2	434	43.3	2450.4609415398
2	435	43.4	2450.5616144349
2	436	43.5	2450.6575175748
2	437	43.6	2450.5457532151
2	438	43.7	2450.4342949722
2	439	43.8	2450.323120039
2	440	43.9	2450.2122448508
2	441	44	2450.1008266695
2	442	44.1	2449.9892283161
2	443	44.2	2449.8784107028
2	444	44.3	2449.7667142762
2	445	44.4	2449.6555175391
2	446	44.5	2449.5445441843
2	447	44.6	2449.4334641848
2	448	44.7	2449.3221794842
2	449	44.8	2449.2112431858
2	450	44.9	2449.0997437087
2	451	45	2448.9889501773
2	452	45.1	2448.8772896291
2	453	45.2	2448.766381645
2	454	45.3	2448.6549096562
2	455	45.4	2448.5433433008
2	456	45.5	2448.4317496145
2	457	45.6	2448.3204686032
2	458	45.7	2448.2087221496
2	459	45.8	2448.0977207933
2	460	45.9	2447.9863721166
2	461	46	2447.8746459659
2	462	46.1	2447.7633744306
2	463	46.2	2447.6517155446
2	464	46.3	2447.5400277741
2	465	46.4	2447.4289534597
2	466	46.5	2447.3174518502
2	467	46.6	2447.2064810744
2	468	46.7	2447.0953805119
2	469	46.8	2446.9841278879
2	470	46.9	2446.8732369677
2	471	47	2446.7624071806
2	472	47.1	2446.6515757067
2	473	47.2	2446.5408017713
2	474	47.3	2446.4294210576
2	475	47.4	2446.3180178262
2	476	47.5	2446.2070702447
2	477	47.6	2446.0958169097
2	478	47.7	2445.9841680242
2	479	47.8	2445.8724185271
2	480	47.9	2445.760886651
2	481	48	2445.6492328254
2	482	48.1	2445.5382752303
2	483	48.2	2445.4270744992
2	484	48.3	2445.3162441134
2	485	48.4	2445.2046963322
2	486	48.5	2445.0930846564
2	487	48.6	2444.981698657
2	488	48.7	2444.8704422085
2	489	48.8	2444.7595306834
2	490	48.9	2444.6483258158
2	491	49	2444.5368837521
2	492	49.1	2444.4252639696
2	493	49.2	2444.3138388244
2	494	49.3	2444.2021344411
2	495	49.4	2444.0903243311
2	496	49.5	2443.9788491429
2	497	49.6	2443.8676516904
2	498	49.7	2443.7566084696
2	499	49.8	2443.6453585066
2	500	49.9	2443.5335681702
2	501	50	2443.4226276393
2	502	50.1	2443.3108466725
2	503	50.2	2443.2000304922
2	504	50.3	2443.0882724024
2	505	50.4	2442.9766550683
2	506	50.5	2442.86491926
2	507	50.6	2442.7540600355
2	508	50.7	2442.6427317753
2	509	50.8	2442.5317973195
2	510	50.9	2442.4207373064
2	511	51	2442.3092173758
2	512	51.1	2442.198238762
2	513	51.2	2442.0864447335
2	514	51.3	2441.9753428474
2	515	51.4	2441.8640553255
2	516	51.5	2441.7523629037
2	517	51.6	2441.6406783496
2	518	51.7	2441.52972147
2	519	51.8	2441.4188824306
2	520	51.9	2441.3079823317
2	521	52	2441.1965671637
2	522	52.1	2441.0851304281
2	523	52.2	2440.973802376
2	524	52.3	2440.8628344774
2	525	52.4	2440.7515708937
2	526	52.5	2440.6399732017
2	527	52.6	2440.5288888499
2	528	52.7	2440.430297074
2	529	52.8	2440.3365541773
2	530	52.9	2440.2421450276
2	531	53	2440.1478791104
2	532	53.1	2440.053361497
2	533	53.2	2439.959225065
2	534	53.3	2439.8646992446
2	535	53.4	2439.7706866257
2	536	53.5	2439.6764557733
2	537	53.6	2439.5826156689
2	538	53.7	2439.4881610294
2	539	53.8	2439.3938235532
2	540	53.9	2439.2999498048
2	541	54	2439.205565345
2	542	54.1	2439.1118875784
2	543	54.2	2439.0179614923
2	544	54.3	2438.9238196083
2	545	54.4	2438.8294698292
2	546	54.5	2438.7353347489
2	547	54.6	2438.6622517647
2	548	54.7	2438.6189153994
2	549	54.8	2438.5816146145
2	550	54.9	2438.5979995233
2	551	55	2438.5984736913
3	2	0.1	1578.0861504339
3	3	0.2	1578.0861504339
3	4	0.3	1578.0948660281
3	5	0.4	1578.1120191384
3	6	0.5	1578.1371999085
3	7	0.6	1578.1699009249
3	8	0.7	1578.2103078142
3	9	0.8	1578.2575584371
3	10	0.9	1578.3122391133
3	11	1	1578.3731852453
3	12	1.1	1578.4416120471
3	13	1.2	1578.5165875256
3	14	1.3	1578.5978137888
3	15	1.4	1578.6862792373
3	16	1.5	1578.7817454701
3	17	1.6	1578.8848400284
3	18	1.7	1578.9929002775
3	19	1.8	1579.109667914
3	20	1.9	1579.2310791202
3	21	2	1579.3602301264
3	22	2.1	1579.4966245294
3	23	2.2	1579.6398401391
3	24	2.3	1579.7884697281
3	25	2.4	1579.9424216952
3	26	2.5	1580.1029653195
3	27	2.6	1580.2703197896
3	28	2.7	1580.4440904977
3	29	2.8	1580.6250627376
3	30	2.9	1580.8108491134
3	31	3	1581.0018507317
3	32	3.1	1581.2776015159
3	33	3.2	1581.7051451085
3	34	3.3	1582.1503836084
3	35	3.4	1582.6139359707
3	36	3.5	1583.0882871207
3	37	3.6	1583.5739408657
3	38	3.7	1584.0700475015
3	39	3.8	1584.5756023731
3	40	3.9	1585.092265564
3	41	4	1585.6231607571
3	42	4.1	1586.1653365986
3	43	4.2	1586.7249192409
3	44	4.3	1587.2970832204
3	45	4.4	1587.8864220101
3	46	4.5	1588.4855230832
3	47	4.6	1589.098297718
3	48	4.7	1589.7257374367
3	49	4.8	1590.3692307901
3	50	4.9	1591.0240630284
3	51	5	1591.6931765648
3	52	5.1	1592.3755327258
3	53	5.2	1593.0762159638
3	54	5.3	1593.789686691
3	55	5.4	1594.5159961507
3	56	5.5	1595.2550995881
3	57	5.6	1596.0039738277
3	58	5.7	1596.765041816
3	59	5.8	1597.5412850883
3	60	5.9	1598.3319865121
3	61	6	1599.1347354287
3	62	6.1	1599.9554281235
3	63	6.2	1600.788453822
3	64	6.3	1601.6337767122
3	65	6.4	1602.4942874275
3	66	6.5	1603.3703811811
3	67	6.6	1604.2619689954
3	68	6.7	1605.168000442
3	69	6.8	1606.0836620722
3	70	6.9	1607.0158923911
3	71	7	1607.9574166369
3	72	7.1	1608.9150987137
3	73	7.2	1609.8868905203
3	74	7.3	1610.873794551
3	75	7.4	1611.8559273621
3	76	7.5	1612.8430236792
3	77	7.6	1613.8226142945
3	78	7.7	1614.803394312
3	79	7.8	1615.7860072795
3	80	7.9	1616.7734928969
3	81	8	1617.7537437873
3	82	8.1	1618.7330828821
3	83	8.2	1619.7172840293
3	84	8.3	1620.7052960955
3	85	8.4	1621.6846090527
3	86	8.5	1622.6702441946
3	87	8.6	1623.6522483425
3	88	8.7	1624.6367907962
3	89	8.8	1625.6231596656
3	90	8.9	1626.6062929211
3	91	9	1627.589959302
3	92	9.1	1628.5774648814
3	93	9.2	1629.5650706254
3	94	9.3	1630.5504982909
3	95	9.4	1631.5376536734
3	96	9.5	1632.5233511087
3	97	9.6	1633.5063001737
3	98	9.7	1634.4870066792
3	99	9.8	1635.4647049708
3	100	9.9	1636.4176424826
3	101	10	1637.3510136306
3	102	10.1	1638.2571814843
3	103	10.2	1639.1429778365
3	104	10.3	1640.0029902644
3	105	10.4	1640.8371837987
3	106	10.5	1641.6470772745
3	107	10.6	1642.4333190387
3	108	10.7	1643.1967337886
3	109	10.8	1643.9389714543
3	110	10.9	1644.6566080693
3	111	11	1645.3569785655
3	112	11.1	1646.0389632517
3	113	11.2	1646.71479824
3	114	11.3	1647.4156000949
3	115	11.4	1648.0976754716
3	116	11.5	1648.7517323894
3	117	11.6	1649.3826192543
3	118	11.7	1649.9898801623
3	119	11.8	1650.572142492
3	120	11.9	1651.1370415846
3	121	12	1651.6762063606
3	122	12.1	1652.2011524383
3	123	12.2	1652.6984089036
3	124	12.3	1653.1806769222
3	125	12.4	1653.6386165051
3	126	12.5	1654.0729711205
3	127	12.6	1654.4950295137
3	128	12.7	1654.8918986684
3	129	12.8	1655.2766105216
3	130	12.9	1655.6343984157
3	131	13	1655.9734684965
3	132	13.1	1656.2995649194
3	133	13.2	1656.6755686784
3	134	13.3	1657.0452189669
3	135	13.4	1657.3895886987
3	136	13.5	1657.7202066286
3	137	13.6	1658.0764720067
3	138	13.7	1658.4583848314
3	139	13.8	1658.8659451045
3	140	13.9	1659.299152825
3	141	14	1659.758007993
3	142	14.1	1660.2425106093
3	143	14.2	1660.7526606731
3	144	14.3	1661.2884581853
3	145	14.4	1661.8499031449
3	146	14.5	1662.4369955519
3	147	14.6	1663.0497354064
3	148	14.7	1663.6881227093
3	149	14.8	1664.3521574596
3	150	14.9	1665.0388698038
3	151	15	1665.745651288
3	152	15.1	1666.4748207871
3	153	15.2	1667.2187599335
3	154	15.3	1667.9733311776
3	155	15.4	1668.7495567277
3	156	15.5	1669.5114731248
3	157	15.6	1670.2517895726
3	158	15.7	1671.0065984027
3	159	15.8	1671.6467903228
3	160	15.9	1672.289594464
3	161	16	1672.9017076921
3	162	16.1	1673.4845111268
3	163	16.2	1674.0818754723
3	164	16.3	1674.6952043837
3	165	16.4	1675.3193381839
3	166	16.5	1675.959733678
3	167	16.6	1676.6107197879
3	168	16.7	1677.2733016387
3	169	16.8	1677.9504366191
3	170	16.9	1678.6398876365
3	171	17	1679.3398879906
3	172	17.1	1680.0806666445
3	173	17.2	1680.8524647793
3	174	17.3	1681.6351160211
3	175	17.4	1682.4316076664
3	176	17.5	1683.2420212142
3	177	17.6	1684.0663132314
3	178	17.7	1684.9011509577
3	179	17.8	1685.7499248106
3	180	17.9	1686.6080485042
3	181	18	1687.4834654471
3	182	18.1	1688.3686097199
3	183	18.2	1689.2641120488
3	184	18.3	1690.169805442
3	185	18.4	1691.0917686708
3	186	18.5	1692.0181232253
3	187	18.6	1692.9460015297
3	188	18.7	1693.8755964171
3	189	18.8	1694.1686095996
3	190	18.9	1694.373947124
3	191	19	1694.5784194348
3	192	19.1	1694.7828732133
3	193	19.2	1694.9863853455
3	194	19.3	1695.1906720437
3	195	19.4	1695.3954946548
3	196	19.5	1695.6005435316
3	197	19.6	1695.8050215021
3	198	19.7	1696.0086918185
3	199	19.8	1696.2127033034
3	200	19.9	1696.4092901936
3	201	20	1696.5730338097
3	202	20.1	1696.736432842
3	203	20.2	1696.9002920063
3	204	20.3	1697.0634273691
3	205	20.4	1697.2268415224
3	206	20.5	1697.3894699197
3	207	20.6	1697.5420310311
3	208	20.7	1697.6726537468
3	209	20.8	1697.8033298748
3	210	20.9	1697.9322992088
3	211	21	1698.0574245956
3	212	21.1	1698.1798739247
3	213	21.2	1698.299009636
3	214	21.3	1698.414277548
3	215	21.4	1698.5273749484
3	216	21.5	1698.6366304029
3	217	21.6	1698.7431105888
3	218	21.7	1698.8465511166
3	219	21.8	1698.9474169379
3	220	21.9	1699.0441195499
3	221	22	1699.1378628956
3	222	22.1	1699.2296116799
3	223	22.2	1699.3176436145
3	224	22.3	1699.4029706419
3	225	22.4	1699.4859995218
3	226	22.5	1699.5663260212
3	227	22.6	1699.6440693252
3	228	22.7	1699.7182018729
3	229	22.8	1699.7896434516
3	230	22.9	1699.8591776555
3	231	23	1699.9258220876
3	232	23.1	1699.9898354961
3	233	23.2	1700.0507437903
3	234	23.3	1700.1092458777
3	235	23.4	1700.1659855945
3	236	23.5	1700.2199042989
3	237	23.6	1700.2709886553
3	238	23.7	1700.319543629
3	239	23.8	1700.3660416258
3	240	23.9	1700.4100578502
3	241	24	1700.4526258782
3	242	24.1	1700.4933320433
3	243	24.2	1700.5309199821
3	244	24.3	1700.5666613262
3	245	24.4	1700.6006474793
3	246	24.5	1700.6330427872
3	247	24.6	1700.6631221846
3	248	24.7	1700.6956489254
3	249	24.8	1700.7306230096
3	250	24.9	1700.7680444364
3	251	25	1700.8079132074
3	252	25.1	1700.850229322
3	253	25.2	1700.8853481244
3	254	25.3	1700.914340389
3	255	25.4	1700.9448355725
3	256	25.5	1700.976833676
3	257	25.6	1701.0103346985
3	258	25.7	1701.04533864
3	259	25.8	1701.0818455005
3	260	25.9	1701.119855281
3	261	26	1701.2111944323
3	262	26.1	1701.3230185742
3	263	26.2	1701.5196805345
3	264	26.3	1701.8395256568
3	265	26.4	1702.2924429895
3	266	26.5	1702.8522341643
3	267	26.6	1703.5750187319
3	268	26.7	1704.3351915842
3	269	26.8	1705.1378754182
3	270	26.9	1705.9552463973
3	271	27	1706.7975629326
3	272	27.1	1707.6604519282
3	273	27.2	1708.5372972768
3	274	27.3	1709.4298748402
3	275	27.4	1710.3467436582
3	276	27.5	1711.2879870879
3	277	27.6	1712.2481963038
3	278	27.7	1713.2232770538
3	279	27.8	1714.2212147266
3	280	27.9	1715.2338504521
3	281	28	1716.2702173265
3	282	28.1	1717.3222434679
3	283	28.2	1718.3949267892
3	284	28.3	1719.4886274301
3	285	28.4	1720.6016564313
3	286	28.5	1721.7373922383
3	287	28.6	1722.8966441872
3	288	28.7	1724.0712827994
3	289	28.8	1725.2623426896
3	290	28.9	1726.4717125949
3	291	29	1727.6968291057
3	292	29.1	1728.9388386123
3	293	29.2	1730.1972790845
3	294	29.3	1731.4757952848
3	295	29.4	1732.7786974609
3	296	29.5	1734.1059187371
3	297	29.6	1735.4489176907
3	298	29.7	1736.8147341087
3	299	29.8	1738.1896314835
3	300	29.9	1739.5651851054
3	301	30	1740.9461478395
3	302	30.1	1742.3233357873
3	303	30.2	1743.7046187753
3	304	30.3	1745.084181211
3	305	30.4	1746.467809475
3	306	30.5	1747.8463955941
3	307	30.6	1749.2188341459
3	308	30.7	1750.5933186039
3	309	30.8	1751.974079919
3	310	30.9	1753.3619529828
3	311	31	1754.7459705481
3	312	31.1	1756.1306440849
3	313	31.2	1757.5184333203
3	314	31.3	1758.9068348538
3	315	31.4	1760.2983922586
3	316	31.5	1761.6849466823
3	317	31.6	1763.0774292331
3	318	31.7	1764.4715853017
3	319	31.8	1765.8689501118
3	320	31.9	1767.2574598966
3	321	32	1768.6540646469
3	322	32.1	1770.0492052492
3	323	32.2	1771.4373389129
3	324	32.3	1772.8319499204
3	325	32.4	1774.2217413764
3	326	32.5	1775.6054379605
3	327	32.6	1776.9931391012
3	328	32.7	1778.3880164362
3	329	32.8	1779.7834013291
3	330	32.9	1781.1739658918
3	331	33	1782.5663449988
3	332	33.1	1783.9550070018
3	333	33.2	1785.3413303811
3	334	33.3	1786.7363869008
3	335	33.4	1788.1325793928
3	336	33.5	1789.5274001276
3	337	33.6	1790.9178015515
3	338	33.7	1792.3043581257
3	339	33.8	1793.6896815803
3	340	33.9	1795.0851216717
3	341	34	1796.4780047648
3	342	34.1	1797.8648945158
3	343	34.2	1799.2569309743
3	344	34.3	1800.6473882115
3	345	34.4	1802.040738428
3	346	34.5	1803.425329552
3	347	34.6	1804.8192422083
3	348	34.7	1806.2088141516
3	349	34.8	1807.5971286781
3	350	34.9	1808.9918921562
3	351	35	1810.3756764382
3	352	35.1	1811.7612617863
3	353	35.2	1813.1519024
3	354	35.3	1814.5448179506
3	355	35.4	1815.9283725098
3	356	35.5	1817.3140148213
3	357	35.6	1818.708207258
3	358	35.7	1820.0993030872
3	359	35.8	1821.4932730682
3	360	35.9	1822.8848831933
3	361	36	1824.2771018269
3	362	36.1	1825.6679013185
3	363	36.2	1827.0595147861
3	364	36.3	1828.4467962794
3	365	36.4	1829.8327821773
3	366	36.5	1831.218381729
3	367	36.6	1832.6097790571
3	368	36.7	1833.993885803
3	369	36.8	1835.3801776282
3	370	36.9	1836.7683689296
3	371	37	1838.1580214603
3	372	37.1	1839.5445240131
3	373	37.2	1840.9317522105
3	374	37.3	1842.3244691696
3	375	37.4	1843.7080802945
3	376	37.5	1845.0920148371
3	377	37.6	1846.4864521176
3	378	37.7	1847.8716038307
3	379	37.8	1849.2666575024
3	380	37.9	1850.6558642164
3	381	38	1852.0495290458
3	382	38.1	1853.4348938763
3	383	38.2	1854.819274528
3	384	38.3	1856.2034372902
3	385	38.4	1857.5914206449
3	386	38.5	1858.9774653492
3	387	38.6	1860.3631113106
3	388	38.7	1861.749215059
3	389	38.8	1863.1386957634
3	390	38.9	1864.5295749269
3	391	39	1865.9257062562
3	392	39.1	1867.321014706
3	393	39.2	1868.7080977028
3	394	39.3	1870.0968973991
3	395	39.4	1871.486528391
3	396	39.5	1872.8759639682
3	397	39.6	1874.2714813668
3	398	39.7	1875.656299958
3	399	39.8	1877.0407961169
3	400	39.9	1878.4287661891
3	401	40	1879.8162014987
3	402	40.1	1881.2027931251