file 286455 1394508954                                          
version 2
run nodebug-0-20140310-23:35:46-7720
attr configname nodebug
attr datetime 20140310-23:35:46
attr experiment nodebug
attr inifile omnetpp.ini
attr iterationvars ""
attr iterationvars2 $repetition=0
attr measurement ""
attr network Traci
attr processid 7720
attr repetition 0
attr replication #0
attr resultdir results
attr runnumber 0
attr seedset 0

vector 2  Traci.node[0].mobility  posx  ETV
vector 3  Traci.node[0].mobility  posy  ETV
vector 4  Traci.node[0].mobility  speed  ETV
vector 5  Traci.node[0].mobility  acceleration  ETV
vector 6  Traci.node[0].mobility  co2emission  ETV
vector 9  Traci.node[1].mobility  posx  ETV
vector 10  Traci.node[1].mobility  posy  ETV
vector 11  Traci.node[1].mobility  speed  ETV
vector 12  Traci.node[1].mobility  acceleration  ETV
vector 13  Traci.node[1].mobility  co2emission  ETV
vector 16  Traci.node[2].mobility  posx  ETV
vector 17  Traci.node[2].mobility  posy  ETV
vector 18  Traci.node[2].mobility  speed  ETV
vector 19  Traci.node[2].mobility  acceleration  ETV
vector 20  Traci.node[2].mobility  co2emission  ETV
vector 23  Traci.node[3].mobility  posx  ETV
vector 24  Traci.node[3].mobility  posy  ETV
vector 25  Traci.node[3].mobility  speed  ETV
vector 26  Traci.node[3].mobility  acceleration  ETV
vector 27  Traci.node[3].mobility  co2emission  ETV
vector 30  Traci.node[4].mobility  posx  ETV
vector 31  Traci.node[4].mobility  posy  ETV
vector 32  Traci.node[4].mobility  speed  ETV
vector 33  Traci.node[4].mobility  acceleration  ETV
vector 34  Traci.node[4].mobility  co2emission  ETV
vector 37  Traci.node[5].mobility  posx  ETV
vector 38  Traci.node[5].mobility  posy  ETV
vector 39  Traci.node[5].mobility  speed  ETV
vector 40  Traci.node[5].mobility  acceleration  ETV
vector 41  Traci.node[5].mobility  co2emission  ETV
vector 44  Traci.node[6].mobility  posx  ETV
vector 45  Traci.node[6].mobility  posy  ETV
vector 46  Traci.node[6].mobility  speed  ETV
vector 47  Traci.node[6].mobility  acceleration  ETV
vector 48  Traci.node[6].mobility  co2emission  ETV
vector 51  Traci.node[7].mobility  posx  ETV
vector 52  Traci.node[7].mobility  posy  ETV
vector 53  Traci.node[7].mobility  speed  ETV
vector 54  Traci.node[7].mobility  acceleration  ETV
vector 55  Traci.node[7].mobility  co2emission  ETV
vector 58  Traci.node[8].mobility  posx  ETV
vector 59  Traci.node[8].mobility  posy  ETV
vector 60  Traci.node[8].mobility  speed  ETV
vector 61  Traci.node[8].mobility  acceleration  ETV
vector 62  Traci.node[8].mobility  co2emission  ETV
vector 65  Traci.node[9].mobility  posx  ETV
vector 66  Traci.node[9].mobility  posy  ETV
vector 67  Traci.node[9].mobility  speed  ETV
vector 68  Traci.node[9].mobility  acceleration  ETV
vector 69  Traci.node[9].mobility  co2emission  ETV
vector 72  Traci.node[10].mobility  posx  ETV
vector 73  Traci.node[10].mobility  posy  ETV
vector 74  Traci.node[10].mobility  speed  ETV
vector 75  Traci.node[10].mobility  acceleration  ETV
vector 76  Traci.node[10].mobility  co2emission  ETV
vector 79  Traci.node[11].mobility  posx  ETV
vector 80  Traci.node[11].mobility  posy  ETV
vector 81  Traci.node[11].mobility  speed  ETV
vector 82  Traci.node[11].mobility  acceleration  ETV
vector 83  Traci.node[11].mobility  co2emission  ETV
2	3334 9130 2 338 0.1 33.7 337 2333.8556597092 2440.76064576 805822.67969137 1927302024.519
3	12464 9132 2 338 0.1 33.7 337 1578.0861504339 1792.3043581257 562712.40169077 940696493.12417
4	21596 9113 3 338 0.2 33.7 336 0.25286542447004 13.998691719738 3246.1803602472 36355.774226618
5	30709 8981 4 338 0.3 33.7 335 -4.4228951416886 2.6 136.36849690986 1389.4540045242
6	39690 8025 4 338 0.3 33.7 335 0.973 10.079222564039 1226.9232765006 6596.0640729123
9	47715 8368 32 338 3.1 33.7 307 2333.8300435923 2436.8947635291 732184.21054828 1746597043.9725
10	56083 8670 32 338 3.1 33.7 307 1578.0861504339 1745.1937193247 509217.65642767 845344735.98443
11	64753 8639 33 338 3.2 33.7 306 0.25157376560476 13.970046478186 2773.3989725712 29165.240865739
12	73392 8301 34 338 3.3 33.7 305 -4.5 2.6 136.47250332822 1518.3343272167
13	81693 7668 34 338 3.3 33.7 305 0.973 9.4720801065986 1191.1374965328 6601.842879056
16	89361 7859 62 338 6.1 33.7 277 2333.8505606231 2430.9412500946 658981.95860411 1567993362.3452
17	97220 7862 62 338 6.1 33.7 277 1578.0861504339 1706.016573716 457364.41000998 755716736.40452
18	105082 7851 63 338 6.2 33.7 276 0.25726502669835 13.882936061814 2371.8829992544 23955.46202675
19	112933 7525 64 338 6.3 33.7 275 -4.5 2.6 84.378571687334 1394.4833763603
20	120458 6881 64 338 6.3 33.7 275 0.973 10.397915429126 974.24586161069 5082.479318818
23	127339 7081 92 338 9.1 33.7 247 2333.8538945733 2416.8185899443 586356.62470527 1392167348.2742
24	134420 7075 92 338 9.1 33.7 247 1578.0861504339 1700.3658795767 406273.91084359 668718451.85559
25	141495 7051 93 338 9.2 33.7 246 0.24904955297103 13.888279208618 2195.4378824394 22816.734972263
26	148546 6877 94 338 9.3 33.7 245 -4.5 2.6 44.24528168568 1224.9855134302
27	155423 6087 94 338 9.3 33.7 245 0.973 10.206745303883 856.61404287527 4574.6833653095
30	161510 6235 122 338 12.1 33.7 217 2333.8278339317 2415.8694684898 514138.49597334 1218317777.1539
31	167745 6226 122 338 12.1 33.7 217 1578.0861504339 1698.234183562 355269.03935729 582003607.32181
32	173971 6202 123 338 12.2 33.7 216 0.25788759189239 13.888730363841 1974.7547595555 21104.244383399
33	180173 6071 124 338 12.3 33.7 215 -4.5 2.6 101.98937347033 962.00364110449
34	186244 5515 124 338 12.3 33.7 215 0.973 9.8680662585879 794.90279106263 4340.6004900472
37	191759 5368 152 338 15.1 33.7 187 2333.8342707189 2415.8694684898 442841.62832911 1048872776.8414
38	197127 5361 152 338 15.1 33.7 187 1578.0861504339 1690.1619946379 304408.77382595 495776077.5652
39	202488 5342 153 338 15.2 33.7 186 0.25719840018917 13.88241367422 1586.4916924446 16061.532839403
40	207830 5168 154 338 15.3 33.7 185 -4.5 2.6 135.425113099 885.35934731297
41	212998 4782 154 338 15.3 33.7 185 0.973 10.246791747165 747.39304648187 4271.7573328092
44	217780 4513 182 338 18.1 33.7 157 2333.8480209213 2415.8694684898 372590.88649934 884369343.50555
45	222293 4515 182 338 18.1 33.7 157 1578.0861504339 1667.1577327019 253963.65674882 410959975.27127
46	226808 4481 183 338 18.2 33.7 156 0.25275420577498 13.877356460129 1249.0282739125 12204.75631733
47	231289 4305 184 338 18.3 33.7 155 -4.5 2.6 75.125061419446 760.48013123707
48	235594 3980 184 338 18.3 33.7 155 0.973 10.300935017229 538.28496387424 2681.8158628938
51	239574 3649 212 338 21.1 33.7 127 2338.1301456037 2415.8694684898 302469.70620818 720465879.92994
52	243223 3645 212 338 21.1 33.7 127 1578.0861504339 1652.7881793641 204254.98497601 328589462.50879
53	246868 3625 213 338 21.2 33.7 126 0.2559691206296 13.858164367683 1092.8245774506 11420.231141365
54	250493 3585 214 338 21.3 33.7 125 -4.5 2.5959705937421 58.045157431018 574.17589880146
55	254078 3195 214 338 21.3 33.7 125 0.973 10.03127758804 435.05785584553 2328.9366769426
58	257273 2782 242 338 24.1 33.7 97 2354.6375969443 2415.8694684898 232096.72457044 555384879.79193
59	260055 2786 242 338 24.1 33.7 97 1578.0861504339 1634.7533606654 154932.01110445 247495348.43472
60	262841 2761 243 338 24.2 33.7 96 0.24736292743497 13.882280186026 853.25513199449 9379.9622646265
61	265602 2767 244 338 24.3 33.7 95 -3.2148048337426 2.5984301561722 111.07325844262 341.03435916351
62	268369 2565 244 338 24.3 33.7 95 0.973 9.7258628559371 382.8352588772 2100.0254651741
65	270934 1927 272 338 27.1 33.7 67 2382.5538741746 2415.8694684898 161048.4856013 387120471.24664
66	272861 1923 272 338 27.1 33.7 67 1578.0861504339 1606.4780177278 106302.91444269 168666389.86779
67	274784 1902 273 338 27.2 33.7 66 0.25588914017053 13.25216627366 457.7885686487 4094.2418919415
68	276686 1863 274 338 27.3 33.7 65 1.3164466168266 2.5982016386464 129.9627713349 269.40020950017
69	278549 1867 274 338 27.3 33.7 65 1.4566748345274 9.3926244560175 312.79901675065 1776.8320255731
72	280416 1059 302 338 30.1 33.7 37 2404.4704753902 2415.8694684898 89233.498738659 215206362.37841
73	281475 1062 302 338 30.1 33.7 37 1578.0861504339 1584.279520045 58453.173177699 92345338.77731
74	282537 1038 303 338 30.2 33.7 36 0.25071311543253 7.3593137037809 139.9318697236 696.56057294596
75	283575 1003 304 338 30.3 33.7 35 1.4437177200103 2.5751460924636 71.086005883484 148.67492507662
76	284578 1006 304 338 30.3 33.7 35 1.4142278393261 5.9035032620791 112.92470830548 408.69553290479
79	285584 203 332 338 33.1 33.7 7 2415.5230441026 2415.8694684898 16910.273773188 40851051.402661
80	285787 202 332 338 33.1 33.7 7 1578.0861504339 1578.2133556604 11046.901401087 17433432.952051
81	285989 178 333 338 33.2 33.7 6 0.24895885090507 1.4253562101338 5.1159596827283 5.3397133455454
82	286167 143 334 338 33.3 33.7 5 2.1290951684971 2.583421343397 11.763973592287 27.796472009215
83	286310 145 334 338 33.3 33.7 5 1.4255662126601 1.9103939792804 8.4937420328423 14.57504295162
