file 17463 1394415033                                           
version 2
run AODVUU-0-20140222-11:57:46-4146
attr configname AODVUU
attr datetime 20140222-11:57:46
attr experiment AODVUU
attr inifile omnetpp.ini
attr iterationvars ""
attr iterationvars2 $repetition=0
attr measurement ""
attr network inet.examples.manetrouting.net80211_aodv.Net80211_aodv
attr processid 4146
attr repetition 0
attr replication #0
attr resultdir results
attr runnumber 0
attr seedset 0
vector 14  Net80211_aodv.fixhost[0].wlan[0].mgmt  dataQueueLen:vector  ETV
attr interpolationmode sample-hold
attr title "data queue length, vector"
14	16266 10 0 0 0 0 1 0 0 0 0
vector 41  Net80211_aodv.host[0].wlan[0].mgmt  dataQueueLen:vector  ETV
attr interpolationmode sample-hold
attr title "data queue length, vector"
41	16276 10 0 0 0 0 1 0 0 0 0
vector 58  Net80211_aodv.host[1].wlan[0].mgmt  dataQueueLen:vector  ETV
attr interpolationmode sample-hold
attr title "data queue length, vector"
58	16286 10 0 0 0 0 1 0 0 0 0
vector 75  Net80211_aodv.host[2].wlan[0].mgmt  dataQueueLen:vector  ETV
attr interpolationmode sample-hold
attr title "data queue length, vector"
75	16296 10 0 0 0 0 1 0 0 0 0
vector 92  Net80211_aodv.host[3].wlan[0].mgmt  dataQueueLen:vector  ETV
attr interpolationmode sample-hold
attr title "data queue length, vector"
92	16306 10 0 0 0 0 1 0 0 0 0
vector 109  Net80211_aodv.host[4].wlan[0].mgmt  dataQueueLen:vector  ETV
attr interpolationmode sample-hold
attr title "data queue length, vector"
109	16316 11 0 0 0 0 1 0 0 0 0
vector 126  Net80211_aodv.host[5].wlan[0].mgmt  dataQueueLen:vector  ETV
attr interpolationmode sample-hold
attr title "data queue length, vector"
126	16327 11 0 0 0 0 1 0 0 0 0
vector 143  Net80211_aodv.host[6].wlan[0].mgmt  dataQueueLen:vector  ETV
attr interpolationmode sample-hold
attr title "data queue length, vector"
143	16338 11 0 0 0 0 1 0 0 0 0
vector 160  Net80211_aodv.host[7].wlan[0].mgmt  dataQueueLen:vector  ETV
attr interpolationmode sample-hold
attr title "data queue length, vector"
160	16349 11 0 0 0 0 1 0 0 0 0
vector 177  Net80211_aodv.host[8].wlan[0].mgmt  dataQueueLen:vector  ETV
attr interpolationmode sample-hold
attr title "data queue length, vector"
177	16360 11 0 0 0 0 1 0 0 0 0
vector 194  Net80211_aodv.host[9].wlan[0].mgmt  dataQueueLen:vector  ETV
attr interpolationmode sample-hold
attr title "data queue length, vector"
194	16371 11 0 0 0 0 1 0 0 0 0
vector 211  Net80211_aodv.host[10].wlan[0].mgmt  dataQueueLen:vector  ETV
attr interpolationmode sample-hold
attr title "data queue length, vector"
211	16382 11 0 0 0 0 1 0 0 0 0
vector 228  Net80211_aodv.host[11].wlan[0].mgmt  dataQueueLen:vector  ETV
attr interpolationmode sample-hold
attr title "data queue length, vector"
228	16393 11 0 0 0 0 1 0 0 0 0
vector 245  Net80211_aodv.host[12].wlan[0].mgmt  dataQueueLen:vector  ETV
attr interpolationmode sample-hold
attr title "data queue length, vector"
245	16404 11 0 0 0 0 1 0 0 0 0
vector 262  Net80211_aodv.host[13].wlan[0].mgmt  dataQueueLen:vector  ETV
attr interpolationmode sample-hold
attr title "data queue length, vector"
262	16415 11 0 0 0 0 1 0 0 0 0
vector 279  Net80211_aodv.host[14].wlan[0].mgmt  dataQueueLen:vector  ETV
attr interpolationmode sample-hold
attr title "data queue length, vector"
279	16426 11 0 0 0 0 1 0 0 0 0
vector 296  Net80211_aodv.host[15].wlan[0].mgmt  dataQueueLen:vector  ETV
attr interpolationmode sample-hold
attr title "data queue length, vector"
296	16437 11 0 0 0 0 1 0 0 0 0
vector 313  Net80211_aodv.host[16].wlan[0].mgmt  dataQueueLen:vector  ETV
attr interpolationmode sample-hold
attr title "data queue length, vector"
313	16448 11 0 0 0 0 1 0 0 0 0
vector 330  Net80211_aodv.host[17].wlan[0].mgmt  dataQueueLen:vector  ETV
attr interpolationmode sample-hold
attr title "data queue length, vector"
330	16459 11 0 0 0 0 1 0 0 0 0
vector 347  Net80211_aodv.host[18].wlan[0].mgmt  dataQueueLen:vector  ETV
attr interpolationmode sample-hold
attr title "data queue length, vector"
347	16470 11 0 0 0 0 1 0 0 0 0
vector 364  Net80211_aodv.host[19].wlan[0].mgmt  dataQueueLen:vector  ETV
attr interpolationmode sample-hold
attr title "data queue length, vector"
364	16481 11 0 0 0 0 1 0 0 0 0
vector 381  Net80211_aodv.host[20].wlan[0].mgmt  dataQueueLen:vector  ETV
attr interpolationmode sample-hold
attr title "data queue length, vector"
381	16492 11 0 0 0 0 1 0 0 0 0
vector 398  Net80211_aodv.host[21].wlan[0].mgmt  dataQueueLen:vector  ETV
attr interpolationmode sample-hold
attr title "data queue length, vector"
398	16503 11 0 0 0 0 1 0 0 0 0
vector 415  Net80211_aodv.host[22].wlan[0].mgmt  dataQueueLen:vector  ETV
attr interpolationmode sample-hold
attr title "data queue length, vector"
415	16514 11 0 0 0 0 1 0 0 0 0
vector 432  Net80211_aodv.host[23].wlan[0].mgmt  dataQueueLen:vector  ETV
attr interpolationmode sample-hold
attr title "data queue length, vector"
432	16525 11 0 0 0 0 1 0 0 0 0
vector 449  Net80211_aodv.host[24].wlan[0].mgmt  dataQueueLen:vector  ETV
attr interpolationmode sample-hold
attr title "data queue length, vector"
449	16536 11 0 0 0 0 1 0 0 0 0
vector 466  Net80211_aodv.host[25].wlan[0].mgmt  dataQueueLen:vector  ETV
attr interpolationmode sample-hold
attr title "data queue length, vector"
466	16547 11 0 0 0 0 1 0 0 0 0
vector 483  Net80211_aodv.host[26].wlan[0].mgmt  dataQueueLen:vector  ETV
attr interpolationmode sample-hold
attr title "data queue length, vector"
483	16558 11 0 0 0 0 1 0 0 0 0
vector 500  Net80211_aodv.host[27].wlan[0].mgmt  dataQueueLen:vector  ETV
attr interpolationmode sample-hold
attr title "data queue length, vector"
500	16569 11 0 0 0 0 1 0 0 0 0
vector 517  Net80211_aodv.host[28].wlan[0].mgmt  dataQueueLen:vector  ETV
attr interpolationmode sample-hold
attr title "data queue length, vector"
517	16580 11 0 0 0 0 1 0 0 0 0
vector 534  Net80211_aodv.host[29].wlan[0].mgmt  dataQueueLen:vector  ETV
attr interpolationmode sample-hold
attr title "data queue length, vector"
534	16591 11 0 0 0 0 1 0 0 0 0
vector 551  Net80211_aodv.host[30].wlan[0].mgmt  dataQueueLen:vector  ETV
attr interpolationmode sample-hold
attr title "data queue length, vector"
551	16602 11 0 0 0 0 1 0 0 0 0
vector 568  Net80211_aodv.host[31].wlan[0].mgmt  dataQueueLen:vector  ETV
attr interpolationmode sample-hold
attr title "data queue length, vector"
568	16613 11 0 0 0 0 1 0 0 0 0
vector 585  Net80211_aodv.host[32].wlan[0].mgmt  dataQueueLen:vector  ETV
attr interpolationmode sample-hold
attr title "data queue length, vector"
585	16624 11 0 0 0 0 1 0 0 0 0
vector 602  Net80211_aodv.host[33].wlan[0].mgmt  dataQueueLen:vector  ETV
attr interpolationmode sample-hold
attr title "data queue length, vector"
602	16635 11 0 0 0 0 1 0 0 0 0
vector 619  Net80211_aodv.host[34].wlan[0].mgmt  dataQueueLen:vector  ETV
attr interpolationmode sample-hold
attr title "data queue length, vector"
619	16646 11 0 0 0 0 1 0 0 0 0
vector 636  Net80211_aodv.host[35].wlan[0].mgmt  dataQueueLen:vector  ETV
attr interpolationmode sample-hold
attr title "data queue length, vector"
636	16657 11 0 0 0 0 1 0 0 0 0
vector 653  Net80211_aodv.host[36].wlan[0].mgmt  dataQueueLen:vector  ETV
attr interpolationmode sample-hold
attr title "data queue length, vector"
653	16668 11 0 0 0 0 1 0 0 0 0
vector 670  Net80211_aodv.host[37].wlan[0].mgmt  dataQueueLen:vector  ETV
attr interpolationmode sample-hold
attr title "data queue length, vector"
670	16679 11 0 0 0 0 1 0 0 0 0
vector 687  Net80211_aodv.host[38].wlan[0].mgmt  dataQueueLen:vector  ETV
attr interpolationmode sample-hold
attr title "data queue length, vector"
687	16690 11 0 0 0 0 1 0 0 0 0
vector 704  Net80211_aodv.host[39].wlan[0].mgmt  dataQueueLen:vector  ETV
attr interpolationmode sample-hold
attr title "data queue length, vector"
704	16701 11 0 0 0 0 1 0 0 0 0
vector 721  Net80211_aodv.host[40].wlan[0].mgmt  dataQueueLen:vector  ETV
attr interpolationmode sample-hold
attr title "data queue length, vector"
721	16712 11 0 0 0 0 1 0 0 0 0
vector 738  Net80211_aodv.host[41].wlan[0].mgmt  dataQueueLen:vector  ETV
attr interpolationmode sample-hold
attr title "data queue length, vector"
738	16723 11 0 0 0 0 1 0 0 0 0
vector 755  Net80211_aodv.host[42].wlan[0].mgmt  dataQueueLen:vector  ETV
attr interpolationmode sample-hold
attr title "data queue length, vector"
755	16734 11 0 0 0 0 1 0 0 0 0
vector 772  Net80211_aodv.host[43].wlan[0].mgmt  dataQueueLen:vector  ETV
attr interpolationmode sample-hold
attr title "data queue length, vector"
772	16745 11 0 0 0 0 1 0 0 0 0
vector 789  Net80211_aodv.host[44].wlan[0].mgmt  dataQueueLen:vector  ETV
attr interpolationmode sample-hold
attr title "data queue length, vector"
789	16756 11 0 0 0 0 1 0 0 0 0
vector 806  Net80211_aodv.host[45].wlan[0].mgmt  dataQueueLen:vector  ETV
attr interpolationmode sample-hold
attr title "data queue length, vector"
806	16767 11 0 0 0 0 1 0 0 0 0
vector 823  Net80211_aodv.host[46].wlan[0].mgmt  dataQueueLen:vector  ETV
attr interpolationmode sample-hold
attr title "data queue length, vector"
823	16778 11 0 0 0 0 1 0 0 0 0
vector 840  Net80211_aodv.host[47].wlan[0].mgmt  dataQueueLen:vector  ETV
attr interpolationmode sample-hold
attr title "data queue length, vector"
840	16789 11 0 0 0 0 1 0 0 0 0
vector 857  Net80211_aodv.host[48].wlan[0].mgmt  dataQueueLen:vector  ETV
attr interpolationmode sample-hold
attr title "data queue length, vector"
857	16800 11 0 0 0 0 1 0 0 0 0
vector 874  Net80211_aodv.host[49].wlan[0].mgmt  dataQueueLen:vector  ETV
attr interpolationmode sample-hold
attr title "data queue length, vector"
874	16811 11 0 0 0 0 1 0 0 0 0
vector 891  Net80211_aodv.host[50].wlan[0].mgmt  dataQueueLen:vector  ETV
attr interpolationmode sample-hold
attr title "data queue length, vector"
891	16822 11 0 0 0 0 1 0 0 0 0
vector 908  Net80211_aodv.host[51].wlan[0].mgmt  dataQueueLen:vector  ETV
attr interpolationmode sample-hold
attr title "data queue length, vector"
908	16833 11 0 0 0 0 1 0 0 0 0
vector 925  Net80211_aodv.host[52].wlan[0].mgmt  dataQueueLen:vector  ETV
attr interpolationmode sample-hold
attr title "data queue length, vector"
925	16844 11 0 0 0 0 1 0 0 0 0
vector 942  Net80211_aodv.host[53].wlan[0].mgmt  dataQueueLen:vector  ETV
attr interpolationmode sample-hold
attr title "data queue length, vector"
942	16855 11 0 0 0 0 1 0 0 0 0
vector 959  Net80211_aodv.host[54].wlan[0].mgmt  dataQueueLen:vector  ETV
attr interpolationmode sample-hold
attr title "data queue length, vector"
959	16866 11 0 0 0 0 1 0 0 0 0
vector 976  Net80211_aodv.host[55].wlan[0].mgmt  dataQueueLen:vector  ETV
attr interpolationmode sample-hold
attr title "data queue length, vector"
976	16877 11 0 0 0 0 1 0 0 0 0
vector 993  Net80211_aodv.host[56].wlan[0].mgmt  dataQueueLen:vector  ETV
attr interpolationmode sample-hold
attr title "data queue length, vector"
993	16888 11 0 0 0 0 1 0 0 0 0
vector 1010  Net80211_aodv.host[57].wlan[0].mgmt  dataQueueLen:vector  ETV
attr interpolationmode sample-hold
attr title "data queue length, vector"
1010	16899 12 0 0 0 0 1 0 0 0 0
vector 1027  Net80211_aodv.host[58].wlan[0].mgmt  dataQueueLen:vector  ETV
attr interpolationmode sample-hold
attr title "data queue length, vector"
1027	16911 12 0 0 0 0 1 0 0 0 0
vector 1044  Net80211_aodv.host[59].wlan[0].mgmt  dataQueueLen:vector  ETV
attr interpolationmode sample-hold
attr title "data queue length, vector"
1044	16923 12 0 0 0 0 1 0 0 0 0
vector 1061  Net80211_aodv.host[60].wlan[0].mgmt  dataQueueLen:vector  ETV
attr interpolationmode sample-hold
attr title "data queue length, vector"
1061	16935 12 0 0 0 0 1 0 0 0 0
vector 1078  Net80211_aodv.host[61].wlan[0].mgmt  dataQueueLen:vector  ETV
attr interpolationmode sample-hold
attr title "data queue length, vector"
1078	16947 12 0 0 0 0 1 0 0 0 0
vector 1095  Net80211_aodv.host[62].wlan[0].mgmt  dataQueueLen:vector  ETV
attr interpolationmode sample-hold
attr title "data queue length, vector"
1095	16959 12 0 0 0 0 1 0 0 0 0
vector 1112  Net80211_aodv.host[63].wlan[0].mgmt  dataQueueLen:vector  ETV
attr interpolationmode sample-hold
attr title "data queue length, vector"
1112	16971 12 0 0 0 0 1 0 0 0 0
vector 1129  Net80211_aodv.host[64].wlan[0].mgmt  dataQueueLen:vector  ETV
attr interpolationmode sample-hold
attr title "data queue length, vector"
1129	16983 12 0 0 0 0 1 0 0 0 0
vector 1146  Net80211_aodv.host[65].wlan[0].mgmt  dataQueueLen:vector  ETV
attr interpolationmode sample-hold
attr title "data queue length, vector"
1146	16995 12 0 0 0 0 1 0 0 0 0
vector 1163  Net80211_aodv.host[66].wlan[0].mgmt  dataQueueLen:vector  ETV
attr interpolationmode sample-hold
attr title "data queue length, vector"
1163	17007 12 0 0 0 0 1 0 0 0 0
vector 1180  Net80211_aodv.host[67].wlan[0].mgmt  dataQueueLen:vector  ETV
attr interpolationmode sample-hold
attr title "data queue length, vector"
1180	17019 12 0 0 0 0 1 0 0 0 0
vector 1197  Net80211_aodv.host[68].wlan[0].mgmt  dataQueueLen:vector  ETV
attr interpolationmode sample-hold
attr title "data queue length, vector"
1197	17031 12 0 0 0 0 1 0 0 0 0
vector 1214  Net80211_aodv.host[69].wlan[0].mgmt  dataQueueLen:vector  ETV
attr interpolationmode sample-hold
attr title "data queue length, vector"
1214	17043 12 0 0 0 0 1 0 0 0 0
vector 1231  Net80211_aodv.host[70].wlan[0].mgmt  dataQueueLen:vector  ETV
attr interpolationmode sample-hold
attr title "data queue length, vector"
1231	17055 12 0 0 0 0 1 0 0 0 0
vector 1248  Net80211_aodv.host[71].wlan[0].mgmt  dataQueueLen:vector  ETV
attr interpolationmode sample-hold
attr title "data queue length, vector"
1248	17067 12 0 0 0 0 1 0 0 0 0
vector 1265  Net80211_aodv.host[72].wlan[0].mgmt  dataQueueLen:vector  ETV
attr interpolationmode sample-hold
attr title "data queue length, vector"
1265	17079 12 0 0 0 0 1 0 0 0 0
vector 1282  Net80211_aodv.host[73].wlan[0].mgmt  dataQueueLen:vector  ETV
attr interpolationmode sample-hold
attr title "data queue length, vector"
1282	17091 12 0 0 0 0 1 0 0 0 0
vector 1299  Net80211_aodv.host[74].wlan[0].mgmt  dataQueueLen:vector  ETV
attr interpolationmode sample-hold
attr title "data queue length, vector"
1299	17103 12 0 0 0 0 1 0 0 0 0
vector 1316  Net80211_aodv.host[75].wlan[0].mgmt  dataQueueLen:vector  ETV
attr interpolationmode sample-hold
attr title "data queue length, vector"
1316	17115 12 0 0 0 0 1 0 0 0 0
vector 1333  Net80211_aodv.host[76].wlan[0].mgmt  dataQueueLen:vector  ETV
attr interpolationmode sample-hold
attr title "data queue length, vector"
1333	17127 12 0 0 0 0 1 0 0 0 0
vector 1350  Net80211_aodv.host[77].wlan[0].mgmt  dataQueueLen:vector  ETV
attr interpolationmode sample-hold
attr title "data queue length, vector"
1350	17139 12 0 0 0 0 1 0 0 0 0
vector 1367  Net80211_aodv.host[78].wlan[0].mgmt  dataQueueLen:vector  ETV
attr interpolationmode sample-hold
attr title "data queue length, vector"
1367	17151 12 0 0 0 0 1 0 0 0 0
vector 1384  Net80211_aodv.host[79].wlan[0].mgmt  dataQueueLen:vector  ETV
attr interpolationmode sample-hold
attr title "data queue length, vector"
1384	17163 12 0 0 0 0 1 0 0 0 0
vector 1401  Net80211_aodv.host[80].wlan[0].mgmt  dataQueueLen:vector  ETV
attr interpolationmode sample-hold
attr title "data queue length, vector"
1401	17175 12 0 0 0 0 1 0 0 0 0
vector 1418  Net80211_aodv.host[81].wlan[0].mgmt  dataQueueLen:vector  ETV
attr interpolationmode sample-hold
attr title "data queue length, vector"
1418	17187 12 0 0 0 0 1 0 0 0 0
vector 1435  Net80211_aodv.host[82].wlan[0].mgmt  dataQueueLen:vector  ETV
attr interpolationmode sample-hold
attr title "data queue length, vector"
1435	17199 12 0 0 0 0 1 0 0 0 0
vector 1452  Net80211_aodv.host[83].wlan[0].mgmt  dataQueueLen:vector  ETV
attr interpolationmode sample-hold
attr title "data queue length, vector"
1452	17211 12 0 0 0 0 1 0 0 0 0
vector 1469  Net80211_aodv.host[84].wlan[0].mgmt  dataQueueLen:vector  ETV
attr interpolationmode sample-hold
attr title "data queue length, vector"
1469	17223 12 0 0 0 0 1 0 0 0 0
vector 1486  Net80211_aodv.host[85].wlan[0].mgmt  dataQueueLen:vector  ETV
attr interpolationmode sample-hold
attr title "data queue length, vector"
1486	17235 12 0 0 0 0 1 0 0 0 0
vector 1503  Net80211_aodv.host[86].wlan[0].mgmt  dataQueueLen:vector  ETV
attr interpolationmode sample-hold
attr title "data queue length, vector"
1503	17247 12 0 0 0 0 1 0 0 0 0
vector 1520  Net80211_aodv.host[87].wlan[0].mgmt  dataQueueLen:vector  ETV
attr interpolationmode sample-hold
attr title "data queue length, vector"
1520	17259 12 0 0 0 0 1 0 0 0 0
vector 1537  Net80211_aodv.host[88].wlan[0].mgmt  dataQueueLen:vector  ETV
attr interpolationmode sample-hold
attr title "data queue length, vector"
1537	17271 12 0 0 0 0 1 0 0 0 0
vector 1554  Net80211_aodv.host[89].wlan[0].mgmt  dataQueueLen:vector  ETV
attr interpolationmode sample-hold
attr title "data queue length, vector"
1554	17283 12 0 0 0 0 1 0 0 0 0
vector 1571  Net80211_aodv.host[90].wlan[0].mgmt  dataQueueLen:vector  ETV
attr interpolationmode sample-hold
attr title "data queue length, vector"
1571	17295 12 0 0 0 0 1 0 0 0 0
vector 1588  Net80211_aodv.host[91].wlan[0].mgmt  dataQueueLen:vector  ETV
attr interpolationmode sample-hold
attr title "data queue length, vector"
1588	17307 12 0 0 0 0 1 0 0 0 0
vector 1605  Net80211_aodv.host[92].wlan[0].mgmt  dataQueueLen:vector  ETV
attr interpolationmode sample-hold
attr title "data queue length, vector"
1605	17319 12 0 0 0 0 1 0 0 0 0
vector 1622  Net80211_aodv.host[93].wlan[0].mgmt  dataQueueLen:vector  ETV
attr interpolationmode sample-hold
attr title "data queue length, vector"
1622	17331 12 0 0 0 0 1 0 0 0 0
vector 1639  Net80211_aodv.host[94].wlan[0].mgmt  dataQueueLen:vector  ETV
attr interpolationmode sample-hold
attr title "data queue length, vector"
1639	17343 12 0 0 0 0 1 0 0 0 0
vector 1656  Net80211_aodv.host[95].wlan[0].mgmt  dataQueueLen:vector  ETV
attr interpolationmode sample-hold
attr title "data queue length, vector"
1656	17355 12 0 0 0 0 1 0 0 0 0
vector 1673  Net80211_aodv.host[96].wlan[0].mgmt  dataQueueLen:vector  ETV
attr interpolationmode sample-hold
attr title "data queue length, vector"
1673	17367 12 0 0 0 0 1 0 0 0 0
vector 1690  Net80211_aodv.host[97].wlan[0].mgmt  dataQueueLen:vector  ETV
attr interpolationmode sample-hold
attr title "data queue length, vector"
1690	17379 12 0 0 0 0 1 0 0 0 0
vector 1707  Net80211_aodv.host[98].wlan[0].mgmt  dataQueueLen:vector  ETV
attr interpolationmode sample-hold
attr title "data queue length, vector"
1707	17391 12 0 0 0 0 1 0 0 0 0
vector 1724  Net80211_aodv.host[99].wlan[0].mgmt  dataQueueLen:vector  ETV
attr interpolationmode sample-hold
attr title "data queue length, vector"
1724	17403 12 0 0 0 0 1 0 0 0 0
vector 1735  Net80211_aodv.fixhost[0].wlan[0].mac  RadioState  ETV
attr enum "IDLE=0, OFF=4, RECV=1, SLEEP=3, TRANSMIT=2"
attr enumname RadioState
1735	17439 24 0 0 0 0 2 0 0 0 0
vector 1734  Net80211_aodv.fixhost[0].wlan[0].mac  State  ETV
attr enum "BACKOFF=3, DEFER=1, IDLE=0, RECEIVE=8, WAITACK=4, WAITAIFS=2, WAITCTS=6, WAITMULTICAST=5, WAITSIFS=7"
attr enumname Ieee80211Mac
1734	17415 24 0 0 0 0 2 0 0 0 0
