file 17032 1393470705                                           
version 2
run AODVUU-0-20140222-11:57:46-4146
attr configname AODVUU
attr datetime 20140222-11:57:46
attr experiment AODVUU
attr inifile omnetpp.ini
attr iterationvars ""
attr iterationvars2 $repetition=0
attr measurement ""
attr network inet.examples.manetrouting.net80211_aodv.Net80211_aodv
attr processid 4146
attr repetition 0
attr replication #0
attr resultdir results
attr runnumber 0
attr seedset 0
vector 14  Net80211_aodv.fixhost[0].wlan[0].mgmt  dataQueueLen:vector  ETV
attr interpolationmode sample-hold
attr title "data queue length, vector"
14	15940 9 0 0 0 0 1 0 0 0 0
vector 41  Net80211_aodv.host[0].wlan[0].mgmt  dataQueueLen:vector  ETV
attr interpolationmode sample-hold
attr title "data queue length, vector"
41	15949 9 0 0 0 0 1 0 0 0 0
vector 58  Net80211_aodv.host[1].wlan[0].mgmt  dataQueueLen:vector  ETV
attr interpolationmode sample-hold
attr title "data queue length, vector"
58	15958 9 0 0 0 0 1 0 0 0 0
vector 75  Net80211_aodv.host[2].wlan[0].mgmt  dataQueueLen:vector  ETV
attr interpolationmode sample-hold
attr title "data queue length, vector"
75	15967 9 0 0 0 0 1 0 0 0 0
vector 92  Net80211_aodv.host[3].wlan[0].mgmt  dataQueueLen:vector  ETV
attr interpolationmode sample-hold
attr title "data queue length, vector"
92	15976 9 0 0 0 0 1 0 0 0 0
vector 109  Net80211_aodv.host[4].wlan[0].mgmt  dataQueueLen:vector  ETV
attr interpolationmode sample-hold
attr title "data queue length, vector"
109	15985 10 0 0 0 0 1 0 0 0 0
vector 126  Net80211_aodv.host[5].wlan[0].mgmt  dataQueueLen:vector  ETV
attr interpolationmode sample-hold
attr title "data queue length, vector"
126	15995 10 0 0 0 0 1 0 0 0 0
vector 143  Net80211_aodv.host[6].wlan[0].mgmt  dataQueueLen:vector  ETV
attr interpolationmode sample-hold
attr title "data queue length, vector"
143	16005 10 0 0 0 0 1 0 0 0 0
vector 160  Net80211_aodv.host[7].wlan[0].mgmt  dataQueueLen:vector  ETV
attr interpolationmode sample-hold
attr title "data queue length, vector"
160	16015 10 0 0 0 0 1 0 0 0 0
vector 177  Net80211_aodv.host[8].wlan[0].mgmt  dataQueueLen:vector  ETV
attr interpolationmode sample-hold
attr title "data queue length, vector"
177	16025 10 0 0 0 0 1 0 0 0 0
vector 194  Net80211_aodv.host[9].wlan[0].mgmt  dataQueueLen:vector  ETV
attr interpolationmode sample-hold
attr title "data queue length, vector"
194	16035 10 0 0 0 0 1 0 0 0 0
vector 211  Net80211_aodv.host[10].wlan[0].mgmt  dataQueueLen:vector  ETV
attr interpolationmode sample-hold
attr title "data queue length, vector"
211	16045 10 0 0 0 0 1 0 0 0 0
vector 228  Net80211_aodv.host[11].wlan[0].mgmt  dataQueueLen:vector  ETV
attr interpolationmode sample-hold
attr title "data queue length, vector"
228	16055 10 0 0 0 0 1 0 0 0 0
vector 245  Net80211_aodv.host[12].wlan[0].mgmt  dataQueueLen:vector  ETV
attr interpolationmode sample-hold
attr title "data queue length, vector"
245	16065 10 0 0 0 0 1 0 0 0 0
vector 262  Net80211_aodv.host[13].wlan[0].mgmt  dataQueueLen:vector  ETV
attr interpolationmode sample-hold
attr title "data queue length, vector"
262	16075 10 0 0 0 0 1 0 0 0 0
vector 279  Net80211_aodv.host[14].wlan[0].mgmt  dataQueueLen:vector  ETV
attr interpolationmode sample-hold
attr title "data queue length, vector"
279	16085 10 0 0 0 0 1 0 0 0 0
vector 296  Net80211_aodv.host[15].wlan[0].mgmt  dataQueueLen:vector  ETV
attr interpolationmode sample-hold
attr title "data queue length, vector"
296	16095 10 0 0 0 0 1 0 0 0 0
vector 313  Net80211_aodv.host[16].wlan[0].mgmt  dataQueueLen:vector  ETV
attr interpolationmode sample-hold
attr title "data queue length, vector"
313	16105 10 0 0 0 0 1 0 0 0 0
vector 330  Net80211_aodv.host[17].wlan[0].mgmt  dataQueueLen:vector  ETV
attr interpolationmode sample-hold
attr title "data queue length, vector"
330	16115 10 0 0 0 0 1 0 0 0 0
vector 347  Net80211_aodv.host[18].wlan[0].mgmt  dataQueueLen:vector  ETV
attr interpolationmode sample-hold
attr title "data queue length, vector"
347	16125 10 0 0 0 0 1 0 0 0 0
vector 364  Net80211_aodv.host[19].wlan[0].mgmt  dataQueueLen:vector  ETV
attr interpolationmode sample-hold
attr title "data queue length, vector"
364	16135 10 0 0 0 0 1 0 0 0 0
vector 381  Net80211_aodv.host[20].wlan[0].mgmt  dataQueueLen:vector  ETV
attr interpolationmode sample-hold
attr title "data queue length, vector"
381	16145 10 0 0 0 0 1 0 0 0 0
vector 398  Net80211_aodv.host[21].wlan[0].mgmt  dataQueueLen:vector  ETV
attr interpolationmode sample-hold
attr title "data queue length, vector"
398	16155 10 0 0 0 0 1 0 0 0 0
vector 415  Net80211_aodv.host[22].wlan[0].mgmt  dataQueueLen:vector  ETV
attr interpolationmode sample-hold
attr title "data queue length, vector"
415	16165 10 0 0 0 0 1 0 0 0 0
vector 432  Net80211_aodv.host[23].wlan[0].mgmt  dataQueueLen:vector  ETV
attr interpolationmode sample-hold
attr title "data queue length, vector"
432	16175 10 0 0 0 0 1 0 0 0 0
vector 449  Net80211_aodv.host[24].wlan[0].mgmt  dataQueueLen:vector  ETV
attr interpolationmode sample-hold
attr title "data queue length, vector"
449	16185 10 0 0 0 0 1 0 0 0 0
vector 466  Net80211_aodv.host[25].wlan[0].mgmt  dataQueueLen:vector  ETV
attr interpolationmode sample-hold
attr title "data queue length, vector"
466	16195 10 0 0 0 0 1 0 0 0 0
vector 483  Net80211_aodv.host[26].wlan[0].mgmt  dataQueueLen:vector  ETV
attr interpolationmode sample-hold
attr title "data queue length, vector"
483	16205 10 0 0 0 0 1 0 0 0 0
vector 500  Net80211_aodv.host[27].wlan[0].mgmt  dataQueueLen:vector  ETV
attr interpolationmode sample-hold
attr title "data queue length, vector"
500	16215 10 0 0 0 0 1 0 0 0 0
vector 517  Net80211_aodv.host[28].wlan[0].mgmt  dataQueueLen:vector  ETV
attr interpolationmode sample-hold
attr title "data queue length, vector"
517	16225 10 0 0 0 0 1 0 0 0 0
vector 534  Net80211_aodv.host[29].wlan[0].mgmt  dataQueueLen:vector  ETV
attr interpolationmode sample-hold
attr title "data queue length, vector"
534	16235 10 0 0 0 0 1 0 0 0 0
vector 551  Net80211_aodv.host[30].wlan[0].mgmt  dataQueueLen:vector  ETV
attr interpolationmode sample-hold
attr title "data queue length, vector"
551	16245 10 0 0 0 0 1 0 0 0 0
vector 568  Net80211_aodv.host[31].wlan[0].mgmt  dataQueueLen:vector  ETV
attr interpolationmode sample-hold
attr title "data queue length, vector"
568	16255 10 0 0 0 0 1 0 0 0 0
vector 585  Net80211_aodv.host[32].wlan[0].mgmt  dataQueueLen:vector  ETV
attr interpolationmode sample-hold
attr title "data queue length, vector"
585	16265 10 0 0 0 0 1 0 0 0 0
vector 602  Net80211_aodv.host[33].wlan[0].mgmt  dataQueueLen:vector  ETV
attr interpolationmode sample-hold
attr title "data queue length, vector"
602	16275 10 0 0 0 0 1 0 0 0 0
vector 619  Net80211_aodv.host[34].wlan[0].mgmt  dataQueueLen:vector  ETV
attr interpolationmode sample-hold
attr title "data queue length, vector"
619	16285 10 0 0 0 0 1 0 0 0 0
vector 636  Net80211_aodv.host[35].wlan[0].mgmt  dataQueueLen:vector  ETV
attr interpolationmode sample-hold
attr title "data queue length, vector"
636	16295 10 0 0 0 0 1 0 0 0 0
vector 653  Net80211_aodv.host[36].wlan[0].mgmt  dataQueueLen:vector  ETV
attr interpolationmode sample-hold
attr title "data queue length, vector"
653	16305 10 0 0 0 0 1 0 0 0 0
vector 670  Net80211_aodv.host[37].wlan[0].mgmt  dataQueueLen:vector  ETV
attr interpolationmode sample-hold
attr title "data queue length, vector"
670	16315 10 0 0 0 0 1 0 0 0 0
vector 687  Net80211_aodv.host[38].wlan[0].mgmt  dataQueueLen:vector  ETV
attr interpolationmode sample-hold
attr title "data queue length, vector"
687	16325 10 0 0 0 0 1 0 0 0 0
vector 704  Net80211_aodv.host[39].wlan[0].mgmt  dataQueueLen:vector  ETV
attr interpolationmode sample-hold
attr title "data queue length, vector"
704	16335 10 0 0 0 0 1 0 0 0 0
vector 721  Net80211_aodv.host[40].wlan[0].mgmt  dataQueueLen:vector  ETV
attr interpolationmode sample-hold
attr title "data queue length, vector"
721	16345 10 0 0 0 0 1 0 0 0 0
vector 738  Net80211_aodv.host[41].wlan[0].mgmt  dataQueueLen:vector  ETV
attr interpolationmode sample-hold
attr title "data queue length, vector"
738	16355 10 0 0 0 0 1 0 0 0 0
vector 755  Net80211_aodv.host[42].wlan[0].mgmt  dataQueueLen:vector  ETV
attr interpolationmode sample-hold
attr title "data queue length, vector"
755	16365 10 0 0 0 0 1 0 0 0 0
vector 772  Net80211_aodv.host[43].wlan[0].mgmt  dataQueueLen:vector  ETV
attr interpolationmode sample-hold
attr title "data queue length, vector"
772	16375 10 0 0 0 0 1 0 0 0 0
vector 789  Net80211_aodv.host[44].wlan[0].mgmt  dataQueueLen:vector  ETV
attr interpolationmode sample-hold
attr title "data queue length, vector"
789	16385 10 0 0 0 0 1 0 0 0 0
vector 806  Net80211_aodv.host[45].wlan[0].mgmt  dataQueueLen:vector  ETV
attr interpolationmode sample-hold
attr title "data queue length, vector"
806	16395 10 0 0 0 0 1 0 0 0 0
vector 823  Net80211_aodv.host[46].wlan[0].mgmt  dataQueueLen:vector  ETV
attr interpolationmode sample-hold
attr title "data queue length, vector"
823	16405 10 0 0 0 0 1 0 0 0 0
vector 840  Net80211_aodv.host[47].wlan[0].mgmt  dataQueueLen:vector  ETV
attr interpolationmode sample-hold
attr title "data queue length, vector"
840	16415 10 0 0 0 0 1 0 0 0 0
vector 857  Net80211_aodv.host[48].wlan[0].mgmt  dataQueueLen:vector  ETV
attr interpolationmode sample-hold
attr title "data queue length, vector"
857	16425 10 0 0 0 0 1 0 0 0 0
vector 874  Net80211_aodv.host[49].wlan[0].mgmt  dataQueueLen:vector  ETV
attr interpolationmode sample-hold
attr title "data queue length, vector"
874	16435 10 0 0 0 0 1 0 0 0 0
vector 891  Net80211_aodv.host[50].wlan[0].mgmt  dataQueueLen:vector  ETV
attr interpolationmode sample-hold
attr title "data queue length, vector"
891	16445 10 0 0 0 0 1 0 0 0 0
vector 908  Net80211_aodv.host[51].wlan[0].mgmt  dataQueueLen:vector  ETV
attr interpolationmode sample-hold
attr title "data queue length, vector"
908	16455 10 0 0 0 0 1 0 0 0 0
vector 925  Net80211_aodv.host[52].wlan[0].mgmt  dataQueueLen:vector  ETV
attr interpolationmode sample-hold
attr title "data queue length, vector"
925	16465 10 0 0 0 0 1 0 0 0 0
vector 942  Net80211_aodv.host[53].wlan[0].mgmt  dataQueueLen:vector  ETV
attr interpolationmode sample-hold
attr title "data queue length, vector"
942	16475 10 0 0 0 0 1 0 0 0 0
vector 959  Net80211_aodv.host[54].wlan[0].mgmt  dataQueueLen:vector  ETV
attr interpolationmode sample-hold
attr title "data queue length, vector"
959	16485 10 0 0 0 0 1 0 0 0 0
vector 976  Net80211_aodv.host[55].wlan[0].mgmt  dataQueueLen:vector  ETV
attr interpolationmode sample-hold
attr title "data queue length, vector"
976	16495 10 0 0 0 0 1 0 0 0 0
vector 993  Net80211_aodv.host[56].wlan[0].mgmt  dataQueueLen:vector  ETV
attr interpolationmode sample-hold
attr title "data queue length, vector"
993	16505 10 0 0 0 0 1 0 0 0 0
vector 1010  Net80211_aodv.host[57].wlan[0].mgmt  dataQueueLen:vector  ETV
attr interpolationmode sample-hold
attr title "data queue length, vector"
1010	16515 11 0 0 0 0 1 0 0 0 0
vector 1027  Net80211_aodv.host[58].wlan[0].mgmt  dataQueueLen:vector  ETV
attr interpolationmode sample-hold
attr title "data queue length, vector"
1027	16526 11 0 0 0 0 1 0 0 0 0
vector 1044  Net80211_aodv.host[59].wlan[0].mgmt  dataQueueLen:vector  ETV
attr interpolationmode sample-hold
attr title "data queue length, vector"
1044	16537 11 0 0 0 0 1 0 0 0 0
vector 1061  Net80211_aodv.host[60].wlan[0].mgmt  dataQueueLen:vector  ETV
attr interpolationmode sample-hold
attr title "data queue length, vector"
1061	16548 11 0 0 0 0 1 0 0 0 0
vector 1078  Net80211_aodv.host[61].wlan[0].mgmt  dataQueueLen:vector  ETV
attr interpolationmode sample-hold
attr title "data queue length, vector"
1078	16559 11 0 0 0 0 1 0 0 0 0
vector 1095  Net80211_aodv.host[62].wlan[0].mgmt  dataQueueLen:vector  ETV
attr interpolationmode sample-hold
attr title "data queue length, vector"
1095	16570 11 0 0 0 0 1 0 0 0 0
vector 1112  Net80211_aodv.host[63].wlan[0].mgmt  dataQueueLen:vector  ETV
attr interpolationmode sample-hold
attr title "data queue length, vector"
1112	16581 11 0 0 0 0 1 0 0 0 0
vector 1129  Net80211_aodv.host[64].wlan[0].mgmt  dataQueueLen:vector  ETV
attr interpolationmode sample-hold
attr title "data queue length, vector"
1129	16592 11 0 0 0 0 1 0 0 0 0
vector 1146  Net80211_aodv.host[65].wlan[0].mgmt  dataQueueLen:vector  ETV
attr interpolationmode sample-hold
attr title "data queue length, vector"
1146	16603 11 0 0 0 0 1 0 0 0 0
vector 1163  Net80211_aodv.host[66].wlan[0].mgmt  dataQueueLen:vector  ETV
attr interpolationmode sample-hold
attr title "data queue length, vector"
1163	16614 11 0 0 0 0 1 0 0 0 0
vector 1180  Net80211_aodv.host[67].wlan[0].mgmt  dataQueueLen:vector  ETV
attr interpolationmode sample-hold
attr title "data queue length, vector"
1180	16625 11 0 0 0 0 1 0 0 0 0
vector 1197  Net80211_aodv.host[68].wlan[0].mgmt  dataQueueLen:vector  ETV
attr interpolationmode sample-hold
attr title "data queue length, vector"
1197	16636 11 0 0 0 0 1 0 0 0 0
vector 1214  Net80211_aodv.host[69].wlan[0].mgmt  dataQueueLen:vector  ETV
attr interpolationmode sample-hold
attr title "data queue length, vector"
1214	16647 11 0 0 0 0 1 0 0 0 0
vector 1231  Net80211_aodv.host[70].wlan[0].mgmt  dataQueueLen:vector  ETV
attr interpolationmode sample-hold
attr title "data queue length, vector"
1231	16658 11 0 0 0 0 1 0 0 0 0
vector 1248  Net80211_aodv.host[71].wlan[0].mgmt  dataQueueLen:vector  ETV
attr interpolationmode sample-hold
attr title "data queue length, vector"
1248	16669 11 0 0 0 0 1 0 0 0 0
vector 1265  Net80211_aodv.host[72].wlan[0].mgmt  dataQueueLen:vector  ETV
attr interpolationmode sample-hold
attr title "data queue length, vector"
1265	16680 11 0 0 0 0 1 0 0 0 0
vector 1282  Net80211_aodv.host[73].wlan[0].mgmt  dataQueueLen:vector  ETV
attr interpolationmode sample-hold
attr title "data queue length, vector"
1282	16691 11 0 0 0 0 1 0 0 0 0
vector 1299  Net80211_aodv.host[74].wlan[0].mgmt  dataQueueLen:vector  ETV
attr interpolationmode sample-hold
attr title "data queue length, vector"
1299	16702 11 0 0 0 0 1 0 0 0 0
vector 1316  Net80211_aodv.host[75].wlan[0].mgmt  dataQueueLen:vector  ETV
attr interpolationmode sample-hold
attr title "data queue length, vector"
1316	16713 11 0 0 0 0 1 0 0 0 0
vector 1333  Net80211_aodv.host[76].wlan[0].mgmt  dataQueueLen:vector  ETV
attr interpolationmode sample-hold
attr title "data queue length, vector"
1333	16724 11 0 0 0 0 1 0 0 0 0
vector 1350  Net80211_aodv.host[77].wlan[0].mgmt  dataQueueLen:vector  ETV
attr interpolationmode sample-hold
attr title "data queue length, vector"
1350	16735 11 0 0 0 0 1 0 0 0 0
vector 1367  Net80211_aodv.host[78].wlan[0].mgmt  dataQueueLen:vector  ETV
attr interpolationmode sample-hold
attr title "data queue length, vector"
1367	16746 11 0 0 0 0 1 0 0 0 0
vector 1384  Net80211_aodv.host[79].wlan[0].mgmt  dataQueueLen:vector  ETV
attr interpolationmode sample-hold
attr title "data queue length, vector"
1384	16757 11 0 0 0 0 1 0 0 0 0
vector 1401  Net80211_aodv.host[80].wlan[0].mgmt  dataQueueLen:vector  ETV
attr interpolationmode sample-hold
attr title "data queue length, vector"
1401	16768 11 0 0 0 0 1 0 0 0 0
vector 1418  Net80211_aodv.host[81].wlan[0].mgmt  dataQueueLen:vector  ETV
attr interpolationmode sample-hold
attr title "data queue length, vector"
1418	16779 11 0 0 0 0 1 0 0 0 0
vector 1435  Net80211_aodv.host[82].wlan[0].mgmt  dataQueueLen:vector  ETV
attr interpolationmode sample-hold
attr title "data queue length, vector"
1435	16790 11 0 0 0 0 1 0 0 0 0
vector 1452  Net80211_aodv.host[83].wlan[0].mgmt  dataQueueLen:vector  ETV
attr interpolationmode sample-hold
attr title "data queue length, vector"
1452	16801 11 0 0 0 0 1 0 0 0 0
vector 1469  Net80211_aodv.host[84].wlan[0].mgmt  dataQueueLen:vector  ETV
attr interpolationmode sample-hold
attr title "data queue length, vector"
1469	16812 11 0 0 0 0 1 0 0 0 0
vector 1486  Net80211_aodv.host[85].wlan[0].mgmt  dataQueueLen:vector  ETV
attr interpolationmode sample-hold
attr title "data queue length, vector"
1486	16823 11 0 0 0 0 1 0 0 0 0
vector 1503  Net80211_aodv.host[86].wlan[0].mgmt  dataQueueLen:vector  ETV
attr interpolationmode sample-hold
attr title "data queue length, vector"
1503	16834 11 0 0 0 0 1 0 0 0 0
vector 1520  Net80211_aodv.host[87].wlan[0].mgmt  dataQueueLen:vector  ETV
attr interpolationmode sample-hold
attr title "data queue length, vector"
1520	16845 11 0 0 0 0 1 0 0 0 0
vector 1537  Net80211_aodv.host[88].wlan[0].mgmt  dataQueueLen:vector  ETV
attr interpolationmode sample-hold
attr title "data queue length, vector"
1537	16856 11 0 0 0 0 1 0 0 0 0
vector 1554  Net80211_aodv.host[89].wlan[0].mgmt  dataQueueLen:vector  ETV
attr interpolationmode sample-hold
attr title "data queue length, vector"
1554	16867 11 0 0 0 0 1 0 0 0 0
vector 1571  Net80211_aodv.host[90].wlan[0].mgmt  dataQueueLen:vector  ETV
attr interpolationmode sample-hold
attr title "data queue length, vector"
1571	16878 11 0 0 0 0 1 0 0 0 0
vector 1588  Net80211_aodv.host[91].wlan[0].mgmt  dataQueueLen:vector  ETV
attr interpolationmode sample-hold
attr title "data queue length, vector"
1588	16889 11 0 0 0 0 1 0 0 0 0
vector 1605  Net80211_aodv.host[92].wlan[0].mgmt  dataQueueLen:vector  ETV
attr interpolationmode sample-hold
attr title "data queue length, vector"
1605	16900 11 0 0 0 0 1 0 0 0 0
vector 1622  Net80211_aodv.host[93].wlan[0].mgmt  dataQueueLen:vector  ETV
attr interpolationmode sample-hold
attr title "data queue length, vector"
1622	16911 11 0 0 0 0 1 0 0 0 0
vector 1639  Net80211_aodv.host[94].wlan[0].mgmt  dataQueueLen:vector  ETV
attr interpolationmode sample-hold
attr title "data queue length, vector"
1639	16922 11 0 0 0 0 1 0 0 0 0
vector 1656  Net80211_aodv.host[95].wlan[0].mgmt  dataQueueLen:vector  ETV
attr interpolationmode sample-hold
attr title "data queue length, vector"
1656	16933 11 0 0 0 0 1 0 0 0 0
vector 1673  Net80211_aodv.host[96].wlan[0].mgmt  dataQueueLen:vector  ETV
attr interpolationmode sample-hold
attr title "data queue length, vector"
1673	16944 11 0 0 0 0 1 0 0 0 0
vector 1690  Net80211_aodv.host[97].wlan[0].mgmt  dataQueueLen:vector  ETV
attr interpolationmode sample-hold
attr title "data queue length, vector"
1690	16955 11 0 0 0 0 1 0 0 0 0
vector 1707  Net80211_aodv.host[98].wlan[0].mgmt  dataQueueLen:vector  ETV
attr interpolationmode sample-hold
attr title "data queue length, vector"
1707	16966 11 0 0 0 0 1 0 0 0 0
vector 1724  Net80211_aodv.host[99].wlan[0].mgmt  dataQueueLen:vector  ETV
attr interpolationmode sample-hold
attr title "data queue length, vector"
1724	16977 11 0 0 0 0 1 0 0 0 0
vector 1735  Net80211_aodv.fixhost[0].wlan[0].mac  RadioState  ETV
attr enum "IDLE=0, OFF=4, RECV=1, SLEEP=3, TRANSMIT=2"
attr enumname RadioState
1735	17010 22 0 0 0 0 2 0 0 0 0
vector 1734  Net80211_aodv.fixhost[0].wlan[0].mac  State  ETV
attr enum "BACKOFF=3, DEFER=1, IDLE=0, RECEIVE=8, WAITACK=4, WAITAIFS=2, WAITCTS=6, WAITMULTICAST=5, WAITSIFS=7"
attr enumname Ieee80211Mac
1734	16988 22 0 0 0 0 2 0 0 0 0
